# vtk DataFile Version 4.0
Nusif VTK output
ASCII
DATASET STRUCTURED_POINTS
DIMENSIONS 50 50 1
ORIGIN 0 0 0 
SPACING 0.02 0.02 1
POINT_DATA 2500 

VECTORS velocity double
0.951119 0.0488811  0
0.835853 0.0663848  0
0.708009 0.0614591  0
0.595907 0.0506425  0
0.505968 0.0392967  0
0.437352 0.0293192  0
0.38675 0.0212828  0
0.350303 0.0151645  0
0.324457 0.0106815  0
0.306297 0.00747832  0
0.293592 0.0052267  0
0.2847 0.00366495  0
0.278434 0.00260143  0
0.273933 0.00190004  0
0.270572 0.0014604  0
0.267914 0.00119822  0
0.265688 0.00102745  0
0.263819 0.000841392  0
0.262491 0.000486969  0
0.262263 -0.0002596  0
0.264041 -0.00151795  0
0.269178 -0.00361889  0
0.279746 -0.00694891  0
0.298699 -0.0120046  0
0.330086 -0.0193823  0
0.379138 -0.0296701  0
0.451965 -0.0431567  0
0.554342 -0.0592203  0
0.688721 -0.0751584  0
0.84759 -0.0837104  0
0.9957 -0.0644002  0
1.09409 -0.0339927  0
1.13571 -0.00762755  0
1.13474 0.00859891  0
1.10834 0.0178028  0
1.06833 0.0222065  0
1.02221 0.0239108  0
0.973725 0.0245777  0
0.923705 0.0254427  0
0.871064 0.0271982  0
0.814238 0.0296276  0
0.753319 0.0312915  0
0.691259 0.0307691  0
0.632688 0.0278013  0
0.581847 0.0230395  0
0.541441 0.0173668  0
0.512585 0.0114893  0
0.495179 0.00591658  0
0.487865 0.00139821  0
0.486466 1.72377e-11  0
1.01758 0.0801857  0
1.03865 0.129269  0
1.03154 0.13353  0
1.00221 0.120002  0
0.961477 0.100612  0
0.917226 0.08087  0
0.874352 0.0632083  0
0.835575 0.0484631  0
0.80215 0.0366544  0
0.774372 0.0274431  0
0.751948 0.0203908  0
0.734254 0.0150865  0
0.720511 0.0111892  0
0.709901 0.00842335  0
0.701646 0.00655269  0
0.695067 0.00534423  0
0.689646 0.0045282  0
0.685104 0.00375136  0
0.681495 0.00251432  0
0.679332 0.000103251  0
0.67983 -0.00415656  0
0.684953 -0.0112398  0
0.697446 -0.0223888  0
0.721079 -0.0391519  0
0.760792 -0.063335  0
0.822768 -0.0967455  0
0.914377 -0.140517  0
1.04374 -0.193605  0
1.21808 -0.249485  0
1.43735 -0.287524  0
1.6539 -0.225249  0
1.81465 -0.132288  0
1.91721 -0.0535115  0
1.97312 -0.000455038  0
1.99486 0.031516  0
1.99439 0.048974  0
1.97938 0.0582704  0
1.95378 0.0643025  0
1.91862 0.0709004  0
1.87249 0.0805142  0
1.81281 0.0928184  0
1.73919 0.102639  0
1.65588 0.104785  0
1.56987 0.0983675  0
1.48772 0.0854603  0
1.41435 0.0687301  0
1.35308 0.0502458  0
1.30625 0.0313946  0
1.27588 0.013609  0
1.26507 6.63319e-11  0
1.01373 0.048883  0
1.04601 0.107209  0
1.07784 0.130875  0
1.09717 0.132657  0
1.10328 0.122583  0
1.09927 0.107155  0
1.08883 0.0902365  0
1.07511 0.0739381  0
1.06043 0.0592822  0
1.04636 0.0466631  0
1.03381 0.0361463  0
1.02319 0.0276465  0
1.01454 0.0210173  0
1.00767 0.0160802  0
1.0022 0.0126197  0
0.997702 0.0103521  0
0.993764 0.00887941  0
0.990074 0.00763141  0
0.986522 0.00579517  0
0.98327 0.00223774  0
0.981032 -0.00455124  0
0.981217 -0.016153  0
0.985955 -0.034707  0
0.998318 -0.0628302  0
1.02255 -0.103601  0
1.06447 -0.160379  0
1.13226 -0.236283  0
1.23778 -0.332723  0
1.39803 -0.444949  0
1.63155 -0.544844  0
1.85267 -0.405603  0
1.98017 -0.240182  0
2.04984 -0.117845  0
2.09452 -0.0367186  0
2.12652 0.0140439  0
2.14901 0.044426  0
2.16381 0.0630287  0
2.172 0.0769486  0
2.17292 0.092499  0
2.16296 0.11501  0
2.1349 0.146055  0
2.08477 0.17316  0
2.01848 0.183858  0
1.94628 0.1775  0
1.87583 0.158932  0
1.8115 0.132965  0
1.75602 0.102753  0
1.71178 0.0699547  0
1.68184 0.0353627  0
1.6709 1.35584e-10  0
1.00727 0.027889  0
1.02996 0.0732221  0
1.06236 0.100636  0
1.09409 0.111838  0
1.12007 0.111316  0
1.13904 0.103458  0
1.15174 0.0916673  0
1.15968 0.0782958  0
1.16443 0.0648519  0
1.16734 0.0522498  0
1.16943 0.0410212  0
1.17136 0.031465  0
1.17347 0.0237378  0
1.17582 0.0178836  0
1.17827 0.0138389  0
1.1805 0.0113983  0
1.18211 0.0101606  0
1.18268 0.0094652  0
1.18187 0.00832259  0
1.17949 0.00534804  0
1.17548 -0.00141992  0
1.1703 -0.0142862  0
1.16509 -0.0361002  0
1.16171 -0.0704263  0
1.16313 -0.121657  0
1.17405 -0.195162  0
1.20231 -0.29755  0
1.26197 -0.436627  0
1.37953 -0.618859  0
1.60477 -0.829689  0
1.78227 -0.519381  0
1.79517 -0.26681  0
1.76504 -0.130752  0
1.74887 -0.0523283  0
1.75155 -0.00501805  0
1.76745 0.0250932  0
1.79105 0.0439625  0
1.82019 0.05868  0
1.85313 0.0769134  0
1.88524 0.108446  0
1.90041 0.165506  0
1.8841 0.220153  0
1.84639 0.240865  0
1.80568 0.233395  0
1.76927 0.209907  0
1.73772 0.177869  0
1.71047 0.140577  0
1.68798 0.0988597  0
1.67224 0.052135  0
1.66641 2.06071e-10  0
1.00396 0.0166639  0
1.01832 0.0473845  0
1.04263 0.0697644  0
1.07128 0.0823331  0
1.09995 0.0861743  0
1.12621 0.0833758  0
1.14914 0.0761114  0
1.16882 0.0662371  0
1.18579 0.0551882  0
1.20076 0.0440267  0
1.21439 0.0335242  0
1.22718 0.0242458  0
1.23942 0.0166163  0
1.25116 0.0109135  0
1.26223 0.00728573  0
1.27226 0.00569228  0
1.28068 0.00583633  0
1.28681 0.00708792  0
1.28991 0.00840637  0
1.28929 0.00827517  0
1.28431 0.00463915  0
1.27446 -0.00531903  0
1.25963 -0.0250204  0
1.24017 -0.0586795  0
1.21713 -0.111784  0
1.19268 -0.191497  0
1.17117 -0.307972  0
1.16146 -0.476148  0
1.18132 -0.716756  0
1.27725 -1.05296  0
1.28961 -0.274626  0
1.1014 -0.124923  0
0.91769 -0.0587916  0
0.834234 -0.0246637  0
0.804222 -0.00534867  0
0.806308 0.0074347  0
0.829036 0.0152934  0
0.865786 0.0214562  0
0.917114 0.0298721  0
0.993738 0.0467515  0
1.10059 0.0826415  0
1.17781 0.219562  0
1.21007 0.246905  0
1.24414 0.234002  0
1.2811 0.208744  0
1.3133 0.178387  0
1.33694 0.14367  0
1.35182 0.103373  0
1.35965 0.0555299  0
1.36209 2.648e-10  0
1.00244 0.010271  0
1.01185 0.0299917  0
1.02913 0.0455757  0
1.05157 0.0554325  0
1.07653 0.0594393  0
1.10202 0.0583676  0
1.12683 0.053378  0
1.15043 0.0456946  0
1.17276 0.0364304  0
1.19401 0.026558  0
1.21447 0.0168985  0
1.2344 0.00815566  0
1.25393 0.000940645  0
1.27301 -0.00423053  0
1.29133 -0.00696533  0
1.30831 -0.00706402  0
1.3231 -0.0046172  0
1.33463 -0.000116863  0
1.34169 0.00544474  0
1.34302 0.0105363  0
1.33734 0.0130362  0
1.32338 0.0100878  0
1.29975 -0.00196296  0
1.26516 -0.02769  0
1.21844 -0.073009  0
1.15822 -0.145605  0
1.08284 -0.256979  0
0.989215 -0.423803  0
0.865674 -0.665419  0
0.397026 -0.942917  0
-0.613164 0.378619  0
-1.1014 0  0
-0.91769 0  0
-0.834234 0  0
-0.804222 0  0
-0.806308 0  0
-0.829036 0  0
-0.865786 0  0
-0.917114 0  0
-0.993738 0  0
-0.520245 0  0
0.148028 0.10122  0
0.385602 0.142216  0
0.549412 0.140818  0
0.681475 0.132899  0
0.78197 0.121542  0
0.854395 0.104448  0
0.902873 0.0792316  0
0.930849 0.043866  0
0.940076 3.09429e-10  0
1.00168 0.00615411  0
1.00831 0.018056  0
1.02093 0.027626  0
1.03819 0.0336794  0
1.0586 0.0358209  0
1.08084 0.0342544  0
1.10397 0.0295529  0
1.12742 0.0224761  0
1.15092 0.013812  0
1.17448 0.00437189  0
1.19817 -0.00507169  0
1.22212 -0.0137509  0
1.24634 -0.02091  0
1.27067 -0.0257908  0
1.29466 -0.0277113  0
1.31751 -0.026145  0
1.33805 -0.0208623  0
1.35474 -0.0120982  0
1.3658 -0.000694079  0
1.36929 0.0118624  0
1.36324 0.0234318  0
1.34565 0.0312406  0
1.31435 0.0318129  0
1.26672 0.0207567  0
1.19931 -0.00732082  0
1.10762 -0.0593872  0
0.984872 -0.145069  0
0.817572 -0.274786  0
0.575684 -0.449008  0
0.215447 -0.54179  0
0 0.54179  0
0 0  0
0 0  0
-6.11219e-21 0  0
-1.63796e-20 0  0
-2.15945e-20 0  0
-2.06663e-20 0  0
-1.45454e-20 0  0
-5.20619e-21 0  0
0 0  0
0 0  0
0 0  0
0.017461 0.0263352  0
0.102573 -0.00109736  0
0.233788 0.0115352  0
0.347812 0.0283866  0
0.434698 0.0382929  0
0.494438 0.0371679  0
0.529094 0.0232984  0
0.540434 3.44452e-10  0
1.00126 0.0032146  0
1.00625 0.00936721  0
1.01592 0.0140405  0
1.02953 0.0163859  0
1.04624 0.0159958  0
1.06523 0.0128441  0
1.08587 0.00720117  0
1.10774 -0.000487386  0
1.13066 -0.00965757  0
1.15462 -0.0196714  0
1.17972 -0.0298131  0
1.20603 -0.0392768  0
1.23358 -0.0471574  0
1.26215 -0.0524466  0
1.2912 -0.0540947  0
1.31972 -0.0511251  0
1.34613 -0.0428326  0
1.36836 -0.029046  0
1.38392 -0.0103712  0
1.39024 0.0117416  0
1.38467 0.0351622  0
1.36457 0.0572026  0
1.32703 0.0746831  0
1.26868 0.0838702  0
1.18526 0.080398  0
1.07097 0.0588728  0
0.916753 0.0136377  0
0.71027 -0.0597094  0
0.440597 -0.152522  0
0.14445 -0.181892  0
0 0.181892  0
0 0  0
0 -3.60916e-21  0
5.74801e-21 3.38976e-21  0
1.54061e-20 9.04419e-21  0
2.0317e-20 1.18155e-20  0
1.94505e-20 1.11774e-20  0
1.36941e-20 7.85104e-21  0
4.90246e-21 2.81359e-21  0
0 -2.99596e-21  0
0 0  0
0 0  0
0 0.0512612  0
0.00149605 -0.0856353  0
0.0329295 -0.081966  0
0.0925853 -0.0517927  0
0.147634 -0.0234617  0
0.191388 -0.00457155  0
0.21915 0.00261927  0
0.228489 3.73626e-10  0
1.00099 0.00096149  0
1.00495 0.00266842  0
1.01268 0.00334461  0
1.02379 0.00235904  0
1.03777 -0.00066422  0
1.05413 -0.0058491  0
1.0725 -0.0131091  0
1.09266 -0.0222081  0
1.11455 -0.0327516  0
1.13826 -0.0442496  0
1.16398 -0.0560471  0
1.19193 -0.0673146  0
1.22227 -0.0770005  0
1.25489 -0.0838011  0
1.28929 -0.0861896  0
1.32429 -0.0825444  0
1.35789 -0.0714274  0
1.38725 -0.0520292  0
1.40899 -0.0246998  0
1.41971 0.00903458  0
1.41623 0.0469155  0
1.39548 0.0863089  0
1.35418 0.124408  0
1.28849 0.158185  0
1.19367 0.18433  0
1.06362 0.199272  0
0.890898 0.200183  0
0.667112 0.184014  0
0.391406 0.149134  0
0.120724 0.0832812  0
0 -0.0832812  0
0 0  0
0 -9.23296e-21  0
1.47252e-20 8.672e-21  0
3.93159e-20 2.3018e-20  0
5.14312e-20 2.97116e-20  0
4.86741e-20 2.75664e-20  0
3.39111e-20 1.91836e-20  0
1.20775e-20 6.85092e-21  0
0 -7.29483e-21  0
0 0  0
0 0  0
0 0.0918817  0
-0.0106407 -0.0918817  0
-0.022 -0.111185  0
-0.0173359 -0.0868936  0
-0.0046601 -0.056085  0
0.00901217 -0.0293743  0
0.0188814 -0.01021  0
0.0223716 4.03273e-10  0
1.00082 -0.000850537  0
1.00407 -0.00273277  0
1.01048 -0.00539339  0
1.0198 -0.00933074  0
1.03175 -0.0148947  0
1.04603 -0.0222683  0
1.06247 -0.0314993  0
1.08099 -0.0424984  0
1.10169 -0.0550454  0
1.1248 -0.0687846  0
1.15074 -0.0831664  0
1.17997 -0.0973777  0
1.21294 -0.110245  0
1.24989 -0.120136  0
1.29056 -0.124914  0
1.33376 -0.122023  0
1.37704 -0.108828  0
1.41643 -0.0833735  0
1.44714 -0.0458087  0
1.46473 0.00182827  0
1.46559 0.0567435  0
1.44661 0.116211  0
1.40456 0.17786  0
1.33553 0.239447  0
1.23471 0.298708  0
1.09627 0.353382  0
0.913561 0.401508  0
0.680353 0.439683  0
0.398951 0.450572  0
0.123736 0.32774  0
0 -0.32774  0
0 0  0
0 -1.0909e-20  0
1.73961e-20 1.02468e-20  0
4.59583e-20 2.68431e-20  0
5.8675e-20 3.34617e-20  0
5.343e-20 2.88581e-20  0
3.59124e-20 1.96131e-20  0
1.25952e-20 6.95199e-21  0
0 -7.40221e-21  0
0 0  0
0 0  0
0 0.0667401  0
-0.0145008 -0.0667401  0
-0.0453037 -0.0941644  0
-0.0724806 -0.0814014  0
-0.0892083 -0.0575254  0
-0.0976398 -0.0331747  0
-0.101048 -0.0128712  0
-0.101877 4.32609e-10  0
1.00069 -0.00235554  0
1.00343 -0.00722423  0
1.00884 -0.0127231  0
1.01679 -0.0192713  0
1.0271 -0.027205  0
1.03962 -0.0367641  0
1.05428 -0.0481007  0
1.07113 -0.0612758  0
1.09042 -0.0762502  0
1.11258 -0.0928526  0
1.13825 -0.110705  0
1.16829 -0.129104  0
1.20364 -0.146847  0
1.24517 -0.162014  0
1.29322 -0.171751  0
1.34701 -0.172175  0
1.40365 -0.158595  0
1.45727 -0.126622  0
1.5006 -0.0765971  0
1.52782 -0.0121961  0
1.53534 0.0623889  0
1.52068 0.144203  0
1.48111 0.231489  0
1.413 0.322963  0
1.31161 0.417397  0
1.17123 0.513514  0
0.985212 0.610102  0
0.746219 0.703291  0
0.451364 0.763221  0
0.145097 0.596573  0
0 -0.596573  0
0 0  0
0 -8.30573e-21  0
1.30946e-20 7.80203e-21  0
3.36458e-20 1.99032e-20  0
3.96349e-20 2.25665e-20  0
3.03784e-20 1.24691e-20  0
1.69092e-20 8.28054e-21  0
5.61448e-21 2.91466e-21  0
0 -3.10334e-21  0
0 0  0
0 0  0
0 0.0261196  0
-0.0211439 -0.030747  0
-0.0670722 -0.053078  0
-0.110632 -0.0517509  0
-0.141513 -0.0395678  0
-0.160242 -0.0239711  0
-0.169407 -0.00950181  0
-0.171948 4.53166e-10  0
1.00058 -0.00362677  0
1.00291 -0.0110201  0
1.00752 -0.01895  0
1.01432 -0.027789  0
1.02319 -0.0378721  0
1.03407 -0.049493  0
1.04695 -0.0629092  0
1.06197 -0.0783422  0
1.07946 -0.0959656  0
1.10003 -0.115866  0
1.12462 -0.137954  0
1.15454 -0.161808  0
1.19145 -0.18641  0
1.23723 -0.209754  0
1.29348 -0.22832  0
1.36056 -0.236469  0
1.43549 -0.225871  0
1.50866 -0.186151  0
1.5681 -0.119835  0
1.60672 -0.0347947  0
1.62222 0.0619653  0
1.61395 0.167555  0
1.5803 0.28136  0
1.51798 0.403524  0
1.42221 0.533994  0
1.28726 0.672249  0
1.10636 0.818283  0
0.869519 0.970947  0
0.560806 1.09913  0
0.193032 0.934702  0
0 -0.934702  0
0 0  0
0 -3.02058e-21  0
4.48127e-21 2.83751e-21  0
1.03836e-20 7.03385e-21  0
5.90233e-21 7.00092e-21  0
-1.20006e-20 0  0
-1.79639e-20 0  0
-5.96328e-21 0  0
0 0  0
0 0  0
0 -0.0165889  0
-0.0169373 0.0165889  0
-0.0569308 0.0138016  0
-0.103639 -0.00464175  0
-0.146005 -0.0142609  0
-0.177351 -0.0148314  0
-0.197051 -0.0102789  0
-0.206788 -0.0042919  0
-0.209457 4.65448e-10  0
1.0005 -0.00470643  0
1.00247 -0.0142442  0
1.00639 -0.0242505  0
1.01217 -0.0350653  0
1.01972 -0.0470269  0
1.02899 -0.0604794  0
1.03997 -0.0757862  0
1.05283 -0.0933417  0
1.06795 -0.113572  0
1.08602 -0.13691  0
1.10824 -0.163717  0
1.13639 -0.194112  0
1.17302 -0.227649  0
1.22146 -0.262736  0
1.28552 -0.295649  0
1.36813 -0.318824  0
1.46726 -0.317578  0
1.56516 -0.265518  0
1.64102 -0.17577  0
1.68913 -0.0655756  0
1.71149 0.0548761  0
1.7108 0.183602  0
1.68726 0.322511  0
1.63764 0.474307  0
1.55613 0.640487  0
1.43667 0.820177  0
1.27414 1.01378  0
1.06011 1.22633  0
0.765783 1.44679  0
0.296436 1.42417  0
0 -1.42417  0
0 0  0
0 0  0
-4.76638e-21 0  0
-1.10431e-20 0  0
-6.27677e-21 0  0
0 0  0
0 0  0
0 0  0
0 0  0
0.0377542 0  0
0.0377542 -0.0165889  0
-0.0366563 0.0634915  0
-0.097088 0.0606334  0
-0.140133 0.0382798  0
-0.174297 0.0193475  0
-0.199391 0.00800066  0
-0.215352 0.00254875  0
-0.223264 0.000529343  0
-0.225415 4.73778e-10  0
1.00042 -0.00562378  0
1.0021 -0.0169813  0
1.00541 -0.0287433  0
1.01028 -0.041217  0
1.01658 -0.0547365  0
1.02423 -0.0696836  0
1.03318 -0.0865169  0
1.04352 -0.105804  0
1.05554 -0.128251  0
1.06995 -0.154716  0
1.088 -0.18618  0
1.11184 -0.223633  0
1.14486 -0.267772  0
1.19215 -0.318349  0
1.26076 -0.372702  0
1.3586 -0.422224  0
1.48737 -0.442085  0
1.6109 -0.362435  0
1.69309 -0.236913  0
1.73944 -0.0988753  0
1.76279 0.0424581  0
1.77077 0.188729  0
1.76507 0.346624  0
1.74101 0.523871  0
1.68845 0.724991  0
1.59861 0.944983  0
1.4712 1.17891  0
1.31352 1.43291  0
1.133 1.71505  0
0.518825 1.94327  0
-0.412942 -0.860303  0
-0.526197 0  0
-0.0788167 0  0
0.120781 0  0
0.179553 0  0
0.182294 0  0
0.1733 0  0
0.164045 0  0
0.160711 0  0
0.0808823 0  0
-0.0377542 0.0314376  0
-0.105387 0.0362213  0
-0.141472 0.100011  0
-0.154989 0.0917195  0
-0.171294 0.0665435  0
-0.188794 0.0427478  0
-0.203809 0.0247094  0
-0.214233 0.0122253  0
-0.219665 0.00419656  0
-0.221181 4.8204e-10  0
1.00036 -0.0064049  0
1.00179 -0.0193066  0
1.00459 -0.032537  0
1.00866 -0.0463566  0
1.01383 -0.0610745  0
1.01992 -0.0770827  0
1.02676 -0.0949029  0
1.03425 -0.115248  0
1.04251 -0.139091  0
1.05197 -0.167748  0
1.06371 -0.202939  0
1.07982 -0.246819  0
1.1041 -0.301879  0
1.14308 -0.370515  0
1.20747 -0.453542  0
1.3129 -0.54465  0
1.47128 -0.606808  0
1.60768 -0.457638  0
1.66388 -0.280112  0
1.68234 -0.120471  0
1.69514 0.0279008  0
1.71449 0.17595  0
1.74247 0.337128  0
1.7704 0.529487  0
1.77463 0.767705  0
1.734 1.03275  0
1.65168 1.30088  0
1.55042 1.56988  0
1.45622 1.8528  0
1.40136 2.17838  0
1.10739 0.577673  0
0.526197 0.299687  0
0.0788167 0.147693  0
-0.120781 0.0519041  0
-0.179553 0.00686792  0
-0.182294 -0.00412688  0
-0.1733 -0.00486694  0
-0.164045 -0.00438751  0
-0.160711 0.00105342  0
-0.169934 0.0144862  0
-0.178616 0.0633873  0
-0.183047 0.0763612  0
-0.182483 0.101735  0
-0.175452 0.0964821  0
-0.173773 0.0764062  0
-0.177329 0.0539413  0
-0.182876 0.0340778  0
-0.187765 0.0181709  0
-0.190665 0.00658294  0
-0.191536 4.91107e-10  0
1.00031 -0.00707964  0
1.00156 -0.021308  0
1.00399 -0.0357658  0
1.00743 -0.0506428  0
1.01166 -0.0661887  0
1.01637 -0.0827589  0
1.02118 -0.100879  0
1.02575 -0.121335  0
1.02978 -0.145294  0
1.03324 -0.174461  0
1.03654 -0.211274  0
1.0411 -0.259147  0
1.05003 -0.322757  0
1.06969 -0.408284  0
1.11246 -0.522938  0
1.20107 -0.669283  0
1.36825 -0.807737  0
1.47321 -0.498071  0
1.43752 -0.260191  0
1.38658 -0.107901  0
1.37402 0.0150877  0
1.41113 0.1323  0
1.50078 0.263152  0
1.63247 0.443841  0
1.7502 0.731386  0
1.79181 1.06809  0
1.76296 1.37671  0
1.71492 1.64335  0
1.69722 1.89123  0
1.76211 2.12993  0
1.63832 1.34005  0
1.22946 0.823535  0
0.808131 0.492553  0
0.4494 0.265372  0
0.171108 0.130464  0
-0.0150874 0.0612136  0
-0.117934 0.0236449  0
-0.166042 0.00595455  0
-0.186877 0.00821241  0
-0.192854 0.0288438  0
-0.186339 0.0575125  0
-0.173638 0.073966  0
-0.158623 0.0885519  0
-0.142921 0.0869322  0
-0.132071 0.0734273  0
-0.126867 0.0552717  0
-0.125491 0.0369194  0
-0.125866 0.0205928  0
-0.126528 0.00772359  0
-0.126798 4.9703e-10  0
1.00029 -0.00768659  0
1.00144 -0.0231008  0
1.00366 -0.0386167  0
1.00675 -0.0543218  0
1.01037 -0.0703616  0
1.01407 -0.0869901  0
1.01725 -0.104646  0
1.01919 -0.12407  0
1.01906 -0.146466  0
1.01605 -0.173733  0
1.00952 -0.208785  0
0.999339 -0.256004  0
0.986431 -0.321922  0
0.973917 -0.416271  0
0.969238 -0.553041  0
0.987814 -0.746363  0
1.06271 -0.972741  0
1.028 -0.247632  0
0.822392 -0.113653  0
0.663817 -0.0449211  0
0.62369 0.00479359  0
0.678829 0.0503459  0
0.831728 0.102553  0
1.11938 0.1851  0
1.49347 0.343645  0
1.70953 1.04349  0
1.73033 1.40935  0
1.73131 1.65779  0
1.76848 1.85731  0
1.85879 2.00864  0
1.84289 1.60102  0
1.62696 1.18736  0
1.33065 0.846376  0
1.02152 0.579405  0
0.733731 0.382511  0
0.486675 0.242418  0
0.287478 0.144484  0
0.136999 0.0837023  0
0.0339914 0.0543075  0
-0.0261672 0.0488844  0
-0.0524884 0.0572778  0
-0.0578555 0.0668673  0
-0.0520764 0.0748567  0
-0.0413391 0.0741875  0
-0.0310978 0.0650814  0
-0.0237493 0.0510643  0
-0.0193559 0.035358  0
-0.0171033 0.0202759  0
-0.0161577 0.00775748  0
-0.0159217 4.89633e-10  0
1.0003 -0.00827577  0
1.00147 -0.0248365  0
1.00371 -0.0413454  0
1.00679 -0.0577554  0
1.0103 -0.0740575  0
1.01363 -0.0903266  0
1.01594 -0.1068  0
1.0161 -0.124005  0
1.01265 -0.142953  0
1.00382 -0.165417  0
0.987583 -0.194331  0
0.961658 -0.234345  0
0.923638 -0.292653  0
0.870833 -0.38022  0
0.799039 -0.512619  0
0.694605 -0.700926  0
0.315751 -0.869904  0
-0.468022 0.354916  0
-0.822392 0  0
-0.663817 0  0
-0.62369 0  0
-0.678829 0  0
-0.831728 0  0
-1.11938 0  0
-0.652241 -0.224002  0
0.438868 0.732211  0
1.07046 1.22289  0
1.38521 1.52853  0
1.59816 1.73644  0
1.77015 1.86723  0
1.8494 1.67909  0
1.78306 1.39156  0
1.61947 1.10207  0
1.40707 0.845239  0
1.17955 0.631993  0
0.958409 0.461128  0
0.755696 0.327684  0
0.578237 0.228439  0
0.430908 0.159908  0
0.316901 0.117449  0
0.236831 0.0951039  0
0.186996 0.0842435  0
0.160395 0.0783018  0
0.14911 0.0712905  0
0.145934 0.060913  0
0.146129 0.0476895  0
0.147327 0.0331406  0
0.148573 0.0189953  0
0.149489 0.00717671  0
0.149833 4.51987e-10  0
1.00034 -0.00890828  0
1.00166 -0.0267023  0
1.00421 -0.0442775  0
1.00774 -0.0614278  0
1.01179 -0.0779432  0
1.01566 -0.0936389  0
1.01828 -0.108421  0
1.01815 -0.122409  0
1.01319 -0.136135  0
1.00062 -0.150851  0
0.976911 -0.168944  0
0.93759 -0.194486  0
0.877013 -0.233917  0
0.787525 -0.296662  0
0.656937 -0.393794  0
0.461951 -0.520332  0
0.17223 -0.537602  0
0 0.537602  0
0 0  0
0.000645418 0  0
0.00200038 0  0
0.00195233 0  0
0.000597363 0  0
0 0  0
0 -0.22869  0
0.219315 0.22869  0
0.651861 0.816929  0
1.03529 1.23632  0
1.33864 1.51234  0
1.5789 1.67908  0
1.7354 1.63149  0
1.77962 1.46127  0
1.73013 1.24543  0
1.61758 1.02683  0
1.46924 0.82628  0
1.30544 0.651773  0
1.14001 0.505179  0
0.982215 0.386201  0
0.838583 0.293108  0
0.713772 0.223068  0
0.610841 0.172486  0
0.530887 0.13665  0
0.472709 0.110674  0
0.433032 0.0898806  0
0.40738 0.0711514  0
0.391456 0.0531802  0
0.381969 0.0359377  0
0.376714 0.0202081  0
0.374289 0.00747295  0
0.373648 3.67644e-10  0
1.00041 -0.00965214  0
1.00203 -0.0289085  0
1.0052 -0.0477898  0
1.00968 -0.0659238  0
1.01505 -0.0828692  0
1.02059 -0.0981127  0
1.02512 -0.111103  0
1.02686 -0.121343  0
1.02321 -0.12858  0
1.01048 -0.133112  0
0.983733 -0.136229  0
0.936605 -0.140751  0
0.861128 -0.151598  0
0.747522 -0.175886  0
0.584263 -0.220723  0
0.363081 -0.277236  0
0.118738 -0.246635  0
0 0.246635  0
0 -0.000645418  0
-0.000645418 0.000645418  0
-0.00200038 0.000709546  0
-0.00195233 -0.000757602  0
-0.000597363 -0.000597363  0
0 0.000597363  0
0 0.0792374  0
0.0886129 -0.0792374  0
0.364189 0.416735  0
0.729798 0.887474  0
1.06101 1.22662  0
1.33999 1.44555  0
1.55028 1.49821  0
1.67317 1.42744  0
1.71367 1.28825  0
1.68928 1.12094  0
1.61955 0.950246  0
1.5215 0.789659  0
1.40838 0.645839  0
1.29011 0.521604  0
1.17406 0.417387  0
1.06561 0.332046  0
0.968578 0.263474  0
0.885329 0.208865  0
0.81684 0.165127  0
0.762734 0.12921  0
0.721558 0.0986503  0
0.691311 0.0718517  0
0.669976 0.048088  0
0.655875 0.0274138  0
0.647875 0.0106919  0
0.645297 1.75636e-10  0
1.00051 -0.0105738  0
1.00257 -0.0316628  0
1.00663 -0.0522673  0
1.01257 -0.0718705  0
1.02008 -0.0898004  0
1.02854 -0.105177  0
1.03686 -0.116889  0
1.04319 -0.123629  0
1.04459 -0.124036  0
1.03666 -0.117  0
1.01324 -0.102179  0
0.966243 -0.0806741  0
0.886064 -0.0560195  0
0.761903 -0.033698  0
0.582237 -0.0199863  0
0.344523 -0.0190764  0
0.105985 -0.0219123  0
0 0.0219123  0
0 -0.00468214  0
-0.00339131 0.00468214  0
-0.00918376 0.00382024  0
-0.00905053 -0.00404958  0
-0.00325807 -0.0044528  0
0 0.0044528  0
0 0.185146  0
0.0172958 -0.185146  0
0.17455 0.0898142  0
0.477294 0.546041  0
0.793994 0.920146  0
1.08365 1.18339  0
1.32484 1.3089  0
1.50056 1.31816  0
1.60825 1.24935  0
1.65597 1.13651  0
1.65618 1.00419  0
1.6217 0.868257  0
1.56382 0.738241  0
1.49186 0.61943  0
1.41321 0.514252  0
1.33362 0.423226  0
1.25732 0.345625  0
1.18733 0.279956  0
1.12551 0.224342  0
1.07277 0.176843  0
1.02921 0.135751  0
0.994431 0.0997781  0
0.967795 0.0681325  0
0.948732 0.0405335  0
0.937028 0.0172756  0
0.933022 4.85177e-10  0
1.00064 -0.0117252  0
1.0032 -0.0351304  0
1.00837 -0.0580336  0
1.01616 -0.0798365  0
1.02651 -0.0996845  0
1.0391 -0.116348  0
1.05317 -0.128109  0
1.06713 -0.132693  0
1.07806 -0.127302  0
1.08114 -0.108885  0
1.06907 -0.0748089  0
1.03198 -0.0239518  0
0.958123 0.0412919  0
0.834763 0.116511  0
0.649326 0.194908  0
0.396937 0.256131  0
0.127142 0.211214  0
0 -0.211214  0
0 -0.0180642  0
-0.00999075 0.0180642  0
-0.0258003 0.0120402  0
-0.0254377 -0.0127653  0
-0.0096282 -0.0173391  0
0 0.0173391  0
0 0.199267  0
-0.00317482 -0.199267  0
0.0620005 -0.118494  0
0.264768 0.248837  0
0.543141 0.622277  0
0.823635 0.911107  0
1.07738 1.08626  0
1.28586 1.1566  0
1.44134 1.14774  0
1.5451 1.08663  0
1.60368 0.995278  0
1.62567 0.889664  0
1.61982 0.780562  0
1.5941 0.674794  0
1.55532 0.576309  0
1.50908 0.48701  0
1.4598 0.407413  0
1.41083 0.337126  0
1.36458 0.275241  0
1.32263 0.220635  0
1.28594 0.172208  0
1.25502 0.129026  0
1.23013 0.0904055  0
1.21154 0.0559216  0
1.1997 0.02543  0
1.19555 -2.5835e-09  0
1.00076 -0.0131258  0
1.00384 -0.0393788  0
1.01015 -0.0652539  0
1.01992 -0.0901843  0
1.03349 -0.113247  0
1.05108 -0.132964  0
1.07258 -0.147072  0
1.09716 -0.152266  0
1.12251 -0.144012  0
1.14387 -0.116613  0
1.15281 -0.0639539  0
1.13679 0.0183134  0
1.08101 0.128657  0
0.97071 0.262804  0
0.789919 0.414844  0
0.519942 0.55856  0
0.180083 0.518439  0
0 -0.518439  0
0 -0.0515331  0
-0.0234782 0.0515331  0
-0.0579569 0.0288595  0
-0.0568063 -0.0310978  0
-0.0223276 -0.0492948  0
0 0.0492948  0
0 0.178543  0
-0.0175491 -0.178543  0
-0.0233725 -0.19857  0
0.085168 0.0176051  0
0.3086 0.351704  0
0.566353 0.643434  0
0.819383 0.847157  0
1.04565 0.960945  0
1.23331 1.00026  0
1.37867 0.984995  0
1.48356 0.933446  0
1.55287 0.8602  0
1.59272 0.776017  0
1.60942 0.688369  0
1.6088 0.602136  0
1.59598 0.520242  0
1.57524 0.444191  0
1.55004 0.374511  0
1.52305 0.311101  0
1.49626 0.253514  0
1.47112 0.201155  0
1.4487 0.153425  0
1.42981 0.109782  0
1.4152 0.0697597  0
1.40567 0.0329577  0
1.40229 4.78064e-09  0
1.00085 -0.0147421  0
1.00432 -0.0443115  0
1.01151 -0.0738138  0
1.02299 -0.102878  0
1.03958 -0.130706  0
1.06228 -0.155794  0
1.09209 -0.175563  0
1.12958 -0.185844  0
1.17405 -0.180251  0
1.22193 -0.149615  0
1.26419 -0.0821491  0
1.2832 0.033524  0
1.2591 0.19332  0
1.17717 0.390368  0
1.02199 0.623251  0
0.757787 0.884338  0
0.295893 0.994415  0
0 -0.994415  0
0 -0.117315  0
-0.0423035 0.117315  0
-0.0987934 0.0540465  0
-0.095906 -0.0603228  0
-0.0394161 -0.111038  0
0 0.111038  0
0 0.128306  0
-0.0326886 -0.128306  0
-0.0828099 -0.192863  0
-0.0640151 -0.115438  0
0.0821992 0.1151  0
0.315128 0.389357  0
0.559959 0.603372  0
0.793345 0.745073  0
1.00076 0.821049  0
1.17512 0.844493  0
1.31476 0.829411  0
1.42156 0.788134  0
1.49926 0.730517  0
1.55247 0.663966  0
1.58588 0.593753  0
1.6039 0.523425  0
1.61044 0.455201  0
1.60882 0.390319  0
1.60177 0.329339  0
1.59146 0.272374  0
1.57962 0.219273  0
1.56761 0.169741  0
1.55656 0.123409  0
1.54746 0.0798468  0
1.54128 0.038573  0
1.53905 -2.90647e-09  0
1.00087 -0.0164651  0
1.00441 -0.0495991  0
1.01188 -0.0831882  0
1.02417 -0.117265  0
1.04268 -0.15142  0
1.06939 -0.184486  0
1.10676 -0.214055  0
1.15759 -0.235679  0
1.22429 -0.241581  0
1.30681 -0.218682  0
1.39758 -0.14611  0
1.46871 0.00734227  0
1.48974 0.222574  0
1.45127 0.481507  0
1.35664 0.78192  0
1.21309 1.13343  0
0.565002 1.52522  0
-0.630572 -0.645154  0
-0.630572 -0.0798091  0
-0.0337993 0.149186  0
-0.0760953 0.0767296  0
-0.0861344 -0.0758542  0
-0.0438384 -0.164601  0
0.0491846 0.0752273  0
0.0491846 0.0478085  0
-0.0473152 -0.0598644  0
-0.122776 -0.147284  0
-0.147021 -0.155567  0
-0.0831629 -0.0548428  0
0.0874896 0.155719  0
0.315071 0.364598  0
0.544957 0.520575  0
0.760561 0.622524  0
0.952079 0.677148  0
1.1152 0.693986  0
1.24935 0.682617  0
1.35624 0.651433  0
1.43885 0.607235  0
1.50068 0.555246  0
1.54531 0.499281  0
1.57612 0.442002  0
1.5961 0.385153  0
1.60785 0.329801  0
1.61356 0.276514  0
1.61501 0.225521  0
1.6137 0.176813  0
1.61089 0.130204  0
1.60767 0.0853632  0
1.60507 0.0418335  0
1.60405 -4.69416e-09  0
1.00076 -0.0180919  0
1.00386 -0.0546208  0
1.01056 -0.0923313  0
1.02203 -0.131875  0
1.04023 -0.173533  0
1.0681 -0.216938  0
1.10973 -0.260609  0
1.17079 -0.301025  0
1.25855 -0.330696  0
1.38047 -0.334003  0
1.5369 -0.277983  0
1.67832 -0.0733396  0
1.75095 0.209603  0
1.75535 0.52854  0
1.71228 0.872591  0
1.65134 1.24724  0
1.6345 1.74624  0
1.45477 0.523716  0
1.00552 0.29986  0
0.614497 0.274144  0
0.388642 0.17569  0
0.198933 0.0249343  0
0.0134968 -0.092557  0
-0.0855311 -0.0168542  0
-0.0818115 -0.00499502  0
-0.0651211 -0.0242446  0
-0.0825986 -0.101527  0
-0.111715 -0.147963  0
-0.109652 -0.128368  0
-0.0329304 -0.0181304  0
0.128023 0.149912  0
0.330923 0.302474  0
0.537576 0.418368  0
0.731749 0.495614  0
0.905566 0.53858  0
1.05583 0.553612  0
1.1822 0.547179  0
1.28601 0.525068  0
1.36951 0.492079  0
1.43533 0.451993  0
1.48616 0.407657  0
1.52455 0.36113  0
1.55279 0.313828  0
1.5729 0.266673  0
1.5866 0.220207  0
1.59536 0.174675  0
1.60044 0.130084  0
1.60291 0.0862274  0
1.60376 0.0427156  0
1.6039 4.34798e-09  0
1.00047 -0.0193165  0
1.00241 -0.0584422  0
1.00684 -0.0996335  0
1.01513 -0.144336  0
1.02962 -0.193768  0
1.05385 -0.248797  0
1.09319 -0.30972  0
1.15588 -0.375664  0
1.25483 -0.442773  0
1.40941 -0.498426  0
1.64172 -0.502297  0
1.86358 -0.212301  0
1.9806 0.15891  0
2.01752 0.537909  0
2.01281 0.911012  0
2.01386 1.26871  0
2.10842 1.64705  0
2.07964 1.1615  0
1.7877 0.777587  0
1.45561 0.563757  0
1.17098 0.396567  0
0.920779 0.243963  0
0.682327 0.112302  0
0.474259 0.0556912  0
0.333814 0.0410555  0
0.248361 0.0100297  0
0.180659 -0.0506219  0
0.115732 -0.104824  0
0.0637765 -0.121613  0
0.0490051 -0.0868351  0
0.100516 0.0061529  0
0.221661 0.122189  0
0.382548 0.231113  0
0.553672 0.317571  0
0.718728 0.377751  0
0.869609 0.413295  0
1.0028 0.427933  0
1.11742 0.425882  0
1.21407 0.411116  0
1.29415 0.38705  0
1.35946 0.356465  0
1.41188 0.321521  0
1.45324 0.283832  0
1.48524 0.244557  0
1.50939 0.204474  0
1.52699 0.164047  0
1.53916 0.123466  0
1.54687 0.0826602  0
1.55098 0.0413211  0
1.55223 -2.2877e-09  0
0.999955 -0.0197381  0
0.999843 -0.0598503  0
1.00019 -0.102999  0
1.00242 -0.151502  0
1.00893 -0.207593  0
1.02325 -0.273533  0
1.05079 -0.351856  0
1.10029 -0.445715  0
1.1873 -0.558688  0
1.34107 -0.690868  0
1.6187 -0.819797  0
1.87437 -0.372324  0
1.99123 0.0850473  0
2.05941 0.506675  0
2.09993 0.906445  0
2.13643 1.23573  0
2.22552 1.49638  0
2.25854 1.30793  0
2.13325 1.04838  0
1.93079 0.827515  0
1.7103 0.637928  0
1.49041 0.472691  0
1.27668 0.335758  0
1.07984 0.237141  0
0.913225 0.166669  0
0.777542 0.105552  0
0.657535 0.0415656  0
0.540474 -0.0150246  0
0.432852 -0.0518358  0
0.350845 -0.0598344  0
0.310325 -0.0318389  0
0.323109 0.0262517  0
0.389044 0.100228  0
0.49306 0.173316  0
0.61527 0.23474  0
0.740836 0.279859  0
0.860842 0.308171  0
0.970562 0.321306  0
1.06789 0.321714  0
1.1523 0.31196  0
1.22416 0.294391  0
1.28434 0.271003  0
1.33391 0.243407  0
1.37404 0.21285  0
1.40583 0.180248  0
1.43028 0.146225  0
1.44827 0.111131  0
1.4605 0.0750435  0
1.46756 0.0377705  0
1.46986 -5.20128e-10  0
0.999196 -0.0188886  0
0.996061 -0.057453  0
0.990378 -0.100059  0
0.983551 -0.149851  0
0.977721 -0.209917  0
0.97574 -0.283556  0
0.981345 -0.374972  0
0.999934 -0.490688  0
1.04069 -0.641486  0
1.12056 -0.841708  0
1.28445 -1.11047  0
1.39059 -0.224371  0
1.40761 0.0223037  0
1.56904 0.239468  0
1.77046 0.831373  0
1.8931 1.15166  0
2.02991 1.35455  0
2.13378 1.31287  0
2.1393 1.1632  0
2.06525 0.989205  0
1.94446 0.817517  0
1.79891 0.658542  0
1.64295 0.5196  0
1.48848 0.404608  0
1.34451 0.309782  0
1.21413 0.228506  0
1.09524 0.157507  0
0.984263 0.0970722  0
0.87852 0.0494322  0
0.779626 0.0197985  0
0.69623 0.0124443  0
0.638993 0.0264217  0
0.615543 0.0575734  0