# vtk DataFile Version 4.0
Nusif VTK output
ASCII
DATASET STRUCTURED_POINTS
DIMENSIONS 500 50 1
ORIGIN 0 0 0 
SPACING 0.03 0.03 1
POINT_DATA 25000 

VECTORS velocity double
0 0  0
0 0  0
0 0  0
0 0  0
0 0  0
0 0  0
0 0  0
0 0  0
0 0  0
0 0  0
0 0  0
0 0  0
0 0  0
0 0  0
0 0  0
0 0  0
0 0  0
0 0  0
0 0  0
0 0  0
0 0  0
0 0  0
0 0  0
0 0  0
0 0  0
0 0  0
0 0  0
0 0  0
0 0  0
0 0  0
0 0  0
0 0  0
0 0  0
0 0  0
0 0  0
0 0  0
0 0  0
0 0  0
0 0  0
0 0  0
0 0  0
0 0  0
0 0  0
0 0  0
0 0  0
0 0  0
0 0  0
0 0  0
0 0  0
0 0  0
0 0  0
0 0  0
0 0  0
0 0  0
0 0  0
0 0  0
0 0  0
0 0  0
0 0  0
0 0  0
0 0  0
0 0  0
0 0  0
0 0  0
0 0  0
0 0  0
0 0  0
0 0  0
0 0  0
0 0  0
0 0  0
0 0  0
0 0  0
0 0  0
0 0  0
0 0  0
0 0  0
0 0  0
0 0  0
0 0  0
0 0  0
0 0  0
0 0  0
0 0  0
0 0  0
0 0  0
0 0  0
0 0  0
0 0  0
0 0  0
0 0  0
0 0  0
0 0  0
0 0  0
0 0  0
0 0  0
0 0  0
0 0  0
0 0  0
0 0  0
0 0  0
0 0  0
0 0  0
0 0  0
0 0  0
0 0  0
0 0  0
0 0  0
0 0  0
0 0  0
0 0  0
0 0  0
0 0  0
0 0  0
0 0  0
0 0  0
0 0  0
0 0  0
0 0  0
0 0  0
0 0  0
0 0  0
0 0  0
0 0  0
0 0  0
0 0  0
0 0  0
0 0  0
0 0  0
0 0  0
0 0  0
0 0  0
0 0  0
0 0  0
0 0  0
0 0  0
0 0  0
0 0  0
0 0  0
0 0  0
0 0  0
0 0  0
0 0  0
0 0  0
0 0  0
0 0  0
0 0  0
0 0  0
0 0  0
0 0  0
0 0  0
0 0  0
0 0  0
0 0  0
0 0  0
0 0  0
0 0  0
0 0  0
0 0  0
0 0  0
0 0  0
0 0  0
0 0  0
0 0  0
0 0  0
0 0  0
0 0  0
0 0  0
0 0  0
0 0  0
0 0  0
0 0  0
0 0  0
0 0  0
0 0  0
0 0  0
0 0  0
0 0  0
0 0  0
0 0  0
0 0  0
0 0  0
0 0  0
0 0  0
0 0  0
0 0  0
0 0  0
0 0  0
0 0  0
0 0  0
0 0  0
0 0  0
0 0  0
0 0  0
0 0  0
0 0  0
0 0  0
0 0  0
0 0  0
0 0  0
0 0  0
0 0  0
0 0  0
0 0  0
0 0  0
0 0  0
0 0  0
0 0  0
0 0  0
0 0  0
0 0  0
0 0  0
0 0  0
0 0  0
0 0  0
0 0  0
0 0  0
0 0  0
0 0  0
0 0  0
0 0  0
0 0  0
0 0  0
0 0  0
0 0  0
0 0  0
0 0  0
0 0  0
0 0  0
0 0  0
0 0  0
0 0  0
0 0  0
0 0  0
0 0  0
0 0  0
0 0  0
0 0  0
0 0  0
0 0  0
0 0  0
0 0  0
0 0  0
0 0  0
0 0  0
0 0  0
0 0  0
0 0  0
0 0  0
0 -2.42491e-06  0
-1.92359e-06 1.95906e-06  0
-2.50594e-05 2.12317e-05  0
-8.47399e-05 3.84877e-05  0
-0.000176772 5.35837e-05  0
-0.000297317 6.69996e-05  0
-0.000442344 7.80664e-05  0
-0.000606356 8.59851e-05  0
-0.000782734 9.04322e-05  0
-0.000964692 9.15653e-05  0
-0.00114602 8.98038e-05  0
-0.00132141 8.56223e-05  0
-0.00148642 7.94233e-05  0
-0.00163728 7.14806e-05  0
-0.00177065 6.19271e-05  0
-0.00188331 5.07705e-05  0
-0.00197197 3.79267e-05  0
-0.00203312 2.32675e-05  0
-0.00206304 6.69062e-06  0
-0.00205779 -1.19024e-05  0
-0.0020132 -3.26448e-05  0
-0.00192489 -5.56288e-05  0
-0.0017883 -8.09187e-05  0
-0.0015988 -0.000108544  0
-0.00135172 -0.000138496  0
-0.00104244 -0.000170744  0
-0.000666355 -0.0002053  0
-0.000218783 -0.000242233  0
0.000304645 -0.000281155  0
0.00090778 -0.00032194  0
0.00159409 -0.000364329  0
0.00236644 -0.000407978  0
0.00322694 -0.000452487  0
0.00417681 -0.000497344  0
0.00521611 -0.00054191  0
0.00634353 -0.000585477  0
0.00755634 -0.000627287  0
0.0088502 -0.000666531  0
0.0102191 -0.000702325  0
0.0116552 -0.000733723  0
0.0131487 -0.000759789  0
0.0146882 -0.000779643  0
0.0162604 -0.00079252  0
0.0178508 -0.000797816  0
0.0194438 -0.000795138  0
0.0210233 -0.000784352  0
0.0225733 -0.000765611  0
0.0240783 -0.000739376  0
0.0255242 -0.000706408  0
0.0268983 -0.000667724  0
0.0281906 -0.000624522  0
0.0293932 -0.00057806  0
0.0305008 -0.000529503  0
0.0315101 -0.000479744  0
0.0324192 -0.000429248  0
0.0332264 -0.000377992  0
0.03393 -0.00032553  0
0.0345269 -0.000271295  0
0.0350125 -0.000214294  0
0.0353807 -0.000153898  0
0.0356231 -8.84389e-05  0
0.0357269 -1.5304e-05  0
0.0356724 6.98432e-05  0
0.0354324 0.000170161  0
0.0349722 0.000290073  0
0.0342477 0.000434516  0
0.0332129 0.000600305  0
0.0318219 0.000790723  0
0.0300062 0.00102499  0
0.0276941 0.00128721  0
0.0248476 0.00155926  0
0.0214268 0.0018616  0
0.0173603 0.00220494  0
0.0125964 0.00255897  0
0.00711516 0.00292235  0
0.000905843 0.003287  0
-0.00601718 0.00363606  0
-0.0136249 0.00397174  0
-0.0218795 0.0042829  0
-0.0307215 0.00455907  0
-0.0400718 0.00479133  0
-0.0498355 0.00497237  0
-0.0599047 0.00509683  0
-0.0701631 0.00516165  0
-0.0804908 0.00516613  0
-0.0907689 0.00511197  0
-0.100884 0.00500298  0
-0.110731 0.0048447  0
-0.12022 0.00464397  0
-0.129272 0.00440833  0
-0.137826 0.00414557  0
-0.145835 0.00386318  0
-0.153266 0.00356805  0
-0.1601 0.00326617  0
-0.166329 0.00296252  0
-0.171952 0.00266091  0
-0.176977 0.00236398  0
-0.181415 0.0020735  0
-0.185279 0.00179051  0
-0.188584 0.00151495  0
-0.191346 0.00124701  0
-0.193579 0.000985868  0
-0.195294 0.000729367  0
-0.196508 0.000484827  0
-0.197244 0.000250482  0
-0.197515 2.07203e-05  0
-0.197312 -0.000223805  0
-0.196606 -0.000481922  0
-0.195378 -0.000745855  0
-0.193619 -0.00101335  0
-0.191322 -0.00128331  0
-0.188484 -0.0015547  0
-0.185103 -0.00182624  0
-0.181181 -0.00209632  0
-0.176721 -0.00236295  0
-0.171734 -0.00262386  0
-0.166234 -0.00287656  0
-0.160239 -0.00311841  0
-0.153774 -0.0033467  0
-0.146868 -0.00355867  0
-0.139558 -0.00375169  0
-0.131883 -0.00392339  0
-0.123888 -0.00407166  0
-0.115622 -0.00419446  0
-0.107137 -0.00429012  0
-0.0984891 -0.00435787  0
-0.089734 -0.00439724  0
-0.0809299 -0.00440686  0
-0.0721356 -0.00438737  0
-0.0634076 -0.00434065  0
-0.0548016 -0.0042653  0
-0.0463731 -0.00416321  0
-0.0381696 -0.00404025  0
-0.0302387 -0.00389069  0
-0.0226172 -0.00373079  0
-0.0153428 -0.00354357  0
-0.00844086 -0.00335835  0
-0.00192943 -0.00315307  0
0.00414905 -0.0029254  0
0.00977076 -0.0026963  0
0.0149364 -0.00246933  0
0.0196508 -0.002245  0
0.0239202 -0.00202447  0
0.027754 -0.00180924  0
0.031164 -0.00160081  0
0.0341655 -0.00140063  0
0.0367761 -0.00120994  0
0.0390158 -0.0010298  0
0.0409067 -0.000861076  0
0.0424722 -0.000704417  0
0.0437369 -0.000560294  0
0.0447262 -0.000429006  0
0.0454659 -0.000310706  0
0.0459821 -0.000205447  0
0.0463008 -0.000113289  0
0.0464487 -3.45811e-05  0
0.0464534 2.98656e-05  0
0.046338 8.5528e-05  0
0.0461208 0.00013172  0
0.0458209 0.000168155  0
0.0454577 0.000195099  0
0.0450492 0.000213362  0
0.0446122 0.00022366  0
0.0441617 0.000226777  0
0.0437114 0.000223519  0
0.0432732 0.000214684  0
0.0428575 0.000201048  0
0.0424731 0.000183346  0
0.0421275 0.000162269  0
0.0418268 0.000138458  0
0.0415758 0.000112511  0
0.0413782 8.50221e-05  0
0.0412366 5.6624e-05  0
0.0411519 2.80285e-05  0
0.0411242 -3.4127e-07  0
0.0411526 -2.7979e-05  0
0.041235 -5.44472e-05  0
0.041369 -7.96254e-05  0
0.041552 -0.000103387  0
0.041781 -0.000125626  0
0.0420529 -0.00014626  0
0.0423644 -0.000165237  0
0.0427121 -0.000182522  0
0.0430928 -0.000198102  0
0.0435028 -0.000211979  0
0.043939 -0.000224167  0
0.0443978 -0.000234688  0
0.044876 -0.000243573  0
0.0453705 -0.000250857  0
0.0458779 -0.000256576  0
0.0463952 -0.000260766  0
0.0469194 -0.00026346  0
0.0474475 -0.000264688  0
0.0479767 -0.000264474  0
0.048504 -0.000262832  0
0.0490266 -0.000259775  0
0.0495416 -0.000255304  0
0.0500463 -0.0002494  0
0.0505377 -0.000242047  0
0.051013 -0.000233232  0
0.0514691 -0.000222894  0
0.0519029 -0.000210948  0
0.0523113 -0.000197405  0
0.0526909 -0.000182285  0
0.0530385 -0.000165338  0
0.0533502 -0.000146321  0
0.0536217 -0.000125261  0
0.0538495 -0.00010253  0
0.0540299 -7.78895e-05  0
0.0541591 -5.13503e-05  0
0.0542333 -2.28836e-05  0
0.0542482 7.99271e-06  0
0.0541984 4.17123e-05  0
0.0540789 7.78296e-05  0
0.0538848 0.00011617  0
0.053612 0.000156628  0
0.0532563 0.000199091  0
0.0528137 0.000243409  0
0.0522809 0.000289394  0
0.0516547 0.000336813  0
0.0509325 0.000385382  0
0.0501123 0.000434771  0
0.0491929 0.000484597  0
0.0481738 0.00053443  0
0.0470556 0.000583794  0
0.0458396 0.000632169  0
0.0445284 0.000678999  0
0.0431256 0.000723699  0
0.0416363 0.000765659  0
0.0400663 0.000804261  0
0.0384231 0.000838887  0
0.0367153 0.000868928  0
0.0349525 0.000893805  0
0.0331457 0.000912976  0
0.0313067 0.000925953  0
0.0294484 0.000932313  0
0.0275844 0.000931712  0
0.0257287 0.000923893  0
0.0238961 0.000908697  0
0.0221013 0.000886069  0
0.0203592 0.00085606  0
0.0186842 0.000818832  0
0.0170907 0.000774648  0
0.0155922 0.000723871  0
0.0142013 0.000666938  0
0.01293 0.000604307  0
0.0117893 0.000536379  0
0.0107894 0.00046354  0
0.00993842 0.00038738  0
0.00923492 0.000316091  0
0.00864462 0.00027417  0
0 0  0
0 0  0
0 0  0
0 0  0
0 0  0
0 0  0
0 0  0
0 0  0
0 0  0
0 0  0
0 0  0
0 0  0
0 0  0
0 0  0
0 0  0
0 0  0
0 0  0
0 0  0
0 0  0
0 0  0
0 0  0
0 0  0
0 0  0
0 0  0
0 0  0
0 0  0
0 0  0
0 0  0
0 0  0
0 0  0
0 0  0
0 0  0
0 0  0
0 0  0
0 0  0
0 0  0
0 0  0
0 0  0
0 0  0
0 0  0
0 0  0
0 0  0
0 0  0
0 0  0
0 0  0
0 0  0
0 0  0
0 0  0
0 0  0
0 0  0
0 0  0
0 0  0
0 0  0
0 0  0
0 0  0
0 0  0
0 0  0
0 0  0
0 0  0
0 0  0
0 0  0
0 0  0
0 0  0
0 0  0
0 0  0
0 0  0
0 0  0
0 0  0
0 0  0
0 0  0
0 0  0
0 0  0
0 0  0
0 0  0
0 0  0
0 0  0
0 0  0
0 0  0
0 0  0
0 0  0
0 0  0
0 0  0
0 0  0
0 0  0
0 0  0
0 0  0
0 0  0
0 0  0
0 0  0
0 0  0
0 0  0
0 0  0
0 0  0
0 0  0
0 0  0
0 0  0
0 0  0
0 0  0
0 0  0
0 0  0
0 0  0
0 0  0
0 0  0
0 0  0
0 0  0
0 0  0
0 0  0
0 0  0
0 0  0
0 0  0
0 0  0
0 0  0
0 0  0
0 0  0
0 0  0
0 0  0
0 0  0
0 0  0
0 0  0
0 0  0
0 0  0
0 0  0
0 0  0
0 0  0
0 0  0
0 0  0
0 0  0
0 0  0
0 0  0
0 0  0
0 0  0
0 0  0
0 0  0
0 0  0
0 0  0
0 0  0
0 0  0
0 0  0
0 0  0
0 0  0
0 0  0
0 0  0
0 0  0
0 0  0
0 0  0
0 0  0
0 0  0
0 0  0
0 0  0
0 0  0
0 0  0
0 0  0
0 0  0
0 0  0
0 0  0
0 0  0
0 0  0
0 0  0
0 0  0
0 0  0
0 0  0
0 0  0
0 0  0
0 0  0
0 0  0
0 0  0
0 0  0
0 0  0
0 0  0
0 0  0
0 0  0
0 0  0
0 0  0
0 0  0
0 0  0
0 0  0
0 0  0
0 0  0
0 0  0
0 0  0
0 0  0
0 0  0
0 0  0
0 0  0
0 0  0
0 0  0
0 0  0
0 0  0
0 0  0
0 0  0
0 0  0
0 0  0
0 0  0
0 0  0
0 0  0
0 0  0
0 0  0
0 0  0
0 0  0
0 0  0
0 0  0
0 0  0
0 0  0
0 0  0
0 0  0
0 0  0
0 0  0
0 0  0
0 0  0
0 0  0
0 0  0
0 0  0
0 0  0
0 0  0
0 0  0
0 0  0
0 0  0
0 0  0
0 0  0
0 0  0
0 0  0
0 0  0
0 0  0
0 0  0
0 0  0
0 0  0
0 0  0
0 0  0
0 0  0
0 0  0
0 0  0
0 0  0
0 0  0
0 0  0
0 0  0
0 0  0
0 0  0
0 0  0
0 0  0
0 0  0
0 0  0
0 0  0
0 0  0
0 0  0
0 0  0
0 0  0
0 0  0
0 0  0
0 0  0
0 -2.47724e-05  0
-1.96129e-05 2.35505e-05  0
-9.84628e-05 0.000101704  0
-0.000252634 0.000171913  0
-0.000475164 0.000234767  0
-0.000759541 0.000290784  0
-0.00109681 0.000336622  0
-0.0014741 0.000368777  0
-0.00187576 0.000385726  0
-0.00228544 0.000387954  0
-0.00268776 0.00037711  0
-0.00306918 0.000355178  0
-0.0034182 0.000323936  0
-0.00372501 0.000284691  0
-0.00398108 0.000238205  0
-0.00417862 0.000184733  0
-0.00431009 0.000124138  0
-0.0043679 5.60624e-05  0
-0.00434418 -1.98511e-05  0
-0.00423087 -0.000103883  0
-0.00401969 -0.000196379  0
-0.00370224 -0.000297614  0
-0.00326995 -0.000407763  0
-0.00271423 -0.000526872  0
-0.00202658 -0.000654855  0
-0.0011987 -0.000791494  0
-0.000222795 -0.000936495  0
0.000908294 -0.00108965  0
0.00220127 -0.00125009  0
0.00366215 -0.00141698  0
0.00529579 -0.00158919  0
0.00710566 -0.00176528  0
0.00909364 -0.00194363  0
0.0112598 -0.00212222  0
0.0136021 -0.00229849  0
0.0161154 -0.00246964  0
0.0187922 -0.0026327  0
0.0216219 -0.00278454  0
0.0245904 -0.00292173  0
0.0276806 -0.00304057  0
0.0308716 -0.00313739  0
0.0341388 -0.00320873  0
0.0374547 -0.00325151  0
0.0407888 -0.00326324  0
0.0441083 -0.00324212  0
0.0473787 -0.00318729  0
0.050565 -0.00309888  0
0.053632 -0.00297811  0
0.0565458 -0.00282721  0
0.0592741 -0.00264935  0
0.0617872 -0.00244825  0
0.0640581 -0.00222782  0
0.0660623 -0.00199155  0
0.0677773 -0.00174189  0
0.0691809 -0.00147964  0
0.0702498 -0.00120382  0
0.0709582 -0.000911578  0
0.0712768 -0.000600634  0
0.0711726 -0.00026638  0
0.0706054 9.72446e-05  0
0.069524 0.000499438  0
0.0678643 0.000952779  0
0.0655493 0.00147134  0
0.0624942 0.00206378  0
0.0586039 0.00274699  0
0.0537564 0.00354964  0
0.0478232 0.00445321  0
0.0407057 0.00544638  0
0.0322859 0.00660491  0
0.0224167 0.00788867  0
0.0109919 0.00922908  0
-0.00201957 0.0106241  0
-0.0165762 0.0120656  0
-0.0326347 0.0135207  0
-0.0501447 0.0149519  0
-0.0689939 0.016316  0
-0.0890277 0.0175639  0
-0.11005 0.0186738  0
-0.131825 0.0196112  0
-0.1541 0.0203476  0
-0.176609 0.0208623  0
-0.199087 0.021143  0
-0.221278 0.0211856  0
-0.242941 0.0209946  0
-0.263862 0.0205819  0
-0.283853 0.0199658  0
-0.302759 0.0191703  0
-0.320457 0.0182223  0
-0.336853 0.0171513  0
-0.351886 0.0159867  0
-0.365522 0.0147568  0
-0.377749 0.0134875  0
-0.388575 0.0122012  0
-0.398025 0.0109167  0
-0.406133 0.00964875  0
-0.412943 0.008408  0
-0.418502 0.00720085  0
-0.422859 0.00603128  0
-0.426063 0.00490082  0
-0.42816 0.00380692  0
-0.429193 0.00275021  0
-0.429207 0.00172941  0
-0.428238 0.000732441  0
-0.426288 -0.000254437  0
-0.423334 -0.00122831  0
-0.419372 -0.00219134  0
-0.414424 -0.00316288  0
-0.408529 -0.00414397  0
-0.401712 -0.00512863  0
-0.393988 -0.00611391  0
-0.38537 -0.00709715  0
-0.375874 -0.00807493  0
-0.365518 -0.00904283  0
-0.354325 -0.00999537  0
-0.342322 -0.0109261  0
-0.329542 -0.0118275  0
-0.316024 -0.0126916  0
-0.301812 -0.0135101  0
-0.286958 -0.0142746  0
-0.271517 -0.0149766  0
-0.255553 -0.0156078  0
-0.239135 -0.0161613  0
-0.222333 -0.0166307  0
-0.205224 -0.0170098  0
-0.18789 -0.0172933  0
-0.170414 -0.0174795  0
-0.152876 -0.0175682  0
-0.135363 -0.0175532  0
-0.117961 -0.0174371  0
-0.100751 -0.0172291  0
-0.0838117 -0.0169219  0
-0.0672287 -0.0165182  0
-0.051068 -0.0160495  0
-0.0354 -0.0154804  0
-0.0202884 -0.0148741  0
-0.00577085 -0.0141922  0
0.00804315 -0.0134256  0
0.0210576 -0.0126116  0
0.0332753 -0.011763  0
0.0447019 -0.0109069  0
0.0553282 -0.0100507  0
0.0651488 -0.00919854  0
0.0741641 -0.00835577  0
0.0823807 -0.00752826  0
0.0898108 -0.00672193  0
0.0964722 -0.00594237  0
0.102388 -0.00519466  0
0.107587 -0.00448328  0
0.1121 -0.00381204  0
0.115965 -0.00318407  0
0.119222 -0.00260185  0
0.121912 -0.00206721  0
0.124081 -0.0015814  0
0.125776 -0.00114513  0
0.127042 -0.00075876  0
0.127928 -0.000422552  0
0.128477 -0.000136719  0
0.128742 0.000102579  0
0.128775 0.000298988  0
0.128617 0.00045879  0
0.128304 0.000581411  0
0.127869 0.000669659  0
0.127348 0.000725932  0
0.12677 0.000753149  0
0.126163 0.000754417  0
0.125552 0.000732871  0
0.124959 0.0006916  0
0.124402 0.000633577  0
0.123898 0.000561614  0
0.12346 0.000478335  0
0.123097 0.000386181  0
0.122819 0.000287464  0
0.12263 0.000184497  0
0.122535 7.98117e-05  0
0.122534 -2.3675e-05  0
0.122625 -0.00012394  0
0.122805 -0.000220144  0
0.123068 -0.000311548  0
0.123411 -0.000397522  0
0.123828 -0.000477561  0
0.124313 -0.000551276  0
0.12486 -0.000618381  0
0.125461 -0.00067868  0
0.126111 -0.000732053  0
0.126801 -0.000778441  0
0.127525 -0.000817836  0
0.128276 -0.000850272  0
0.129045 -0.00087581  0
0.129827 -0.000894535  0
0.130613 -0.000906539  0
0.131397 -0.000911918  0
0.132171 -0.000910767  0
0.132929 -0.00090317  0
0.133663 -0.000889187  0
0.134366 -0.000868853  0
0.135032 -0.000842203  0
0.135653 -0.000809234  0
0.136223 -0.000769864  0
0.136734 -0.000724027  0
0.137179 -0.000671761  0
0.137551 -0.000612844  0
0.137843 -0.000546844  0
0.138047 -0.000473683  0
0.138155 -0.000393971  0
0.138161 -0.000307144  0
0.138058 -0.000212739  0
0.137837 -0.000109894  0
0.137489 2.24731e-06  0
0.137003 0.000122986  0
0.13637 0.000251931  0
0.135581 0.000388938  0
0.134628 0.000534165  0
0.133505 0.000687626  0
0.132208 0.000848718  0
0.13073 0.00101691  0
0.129067 0.0011916  0
0.127215 0.00137206  0
0.125171 0.00155741  0
0.122932 0.00174662  0
0.1205 0.00193847  0
0.117874 0.00213158  0
0.115058 0.00232441  0
0.112057 0.00251525  0
0.108878 0.00270224  0
0.105529 0.00288342  0
0.102021 0.00305669  0
0.0983663 0.0032199  0
0.0945809 0.00337084  0
0.0906815 0.00350729  0
0.086687 0.0036271  0
0.082618 0.00372814  0
0.078497 0.00380847  0
0.0743477 0.00386627  0
0.0701951 0.00389995  0
0.0660648 0.00390818  0
0.0619833 0.00388991  0
0.057977 0.00384443  0
0.0540724 0.00377136  0
0.0502955 0.00367068  0
0.0466716 0.00354275  0
0.0432248 0.00338828  0
0.039978 0.00320836  0
0.0369522 0.00300437  0
0.0341668 0.00277802  0
0.0316392 0.00253121  0
0.0293846 0.00226589  0
0.0274162 0.00198391  0
0.0257448 0.00168724  0
0.0243779 0.00138155  0
0.0233112 0.00109204  0
0.0224971 0.000902644  0
0 0  0
0 0  0
0 0  0
0 0  0
0 0  0
0 0  0
0 0  0
0 0  0
0 0  0
0 0  0
0 0  0
0 0  0
0 0  0
0 0  0
0 0  0
0 0  0
0 0  0
0 0  0
0 0  0
0 0  0
0 0  0
0 0  0
0 0  0
0 0  0
0 0  0
0 0  0
0 0  0
0 0  0
0 0  0
0 0  0
0 0  0
0 0  0
0 0  0
0 0  0
0 0  0
0 0  0
0 0  0
0 0  0
0 0  0
0 0  0
0 0  0
0 0  0
0 0  0
0 0  0
0 0  0
0 0  0
0 0  0
0 0  0
0 0  0
0 0  0
0 0  0
0 0  0
0 0  0
0 0  0
0 0  0
0 0  0
0 0  0
0 0  0
0 0  0
0 0  0
0 0  0
0 0  0
0 0  0
0 0  0
0 0  0
0 0  0
0 0  0
0 0  0
0 0  0
0 0  0
0 0  0
0 0  0
0 0  0
0 0  0
0 0  0
0 0  0
0 0  0
0 0  0
0 0  0
0 0  0
0 0  0
0 0  0
0 0  0
0 0  0
0 0  0
0 0  0
0 0  0
0 0  0
0 0  0
0 0  0
0 0  0
0 0  0
0 0  0
0 0  0
0 0  0
0 0  0
0 0  0
0 0  0
0 0  0
0 0  0
0 0  0
0 0  0
0 0  0
0 0  0
0 0  0
0 0  0
0 0  0
0 0  0
0 0  0
0 0  0
0 0  0
0 0  0
0 0  0
0 0  0
0 0  0
0 0  0
0 0  0
0 0  0
0 0  0
0 0  0
0 0  0
0 0  0
0 0  0
0 0  0
0 0  0
0 0  0
0 0  0
0 0  0
0 0  0
0 0  0
0 0  0
0 0  0
0 0  0
0 0  0
0 0  0
0 0  0
0 0  0
0 0  0
0 0  0
0 0  0
0 0  0
0 0  0
0 0  0
0 0  0
0 0  0
0 0  0
0 0  0
0 0  0
0 0  0
0 0  0
0 0  0
0 0  0
0 0  0
0 0  0
0 0  0
0 0  0
0 0  0
0 0  0
0 0  0
0 0  0
0 0  0
0 0  0
0 0  0
0 0  0
0 0  0
0 0  0
0 0  0
0 0  0
0 0  0
0 0  0
0 0  0
0 0  0
0 0  0
0 0  0
0 0  0
0 0  0
0 0  0
0 0  0
0 0  0
0 0  0
0 0  0
0 0  0
0 0  0
0 0  0
0 0  0
0 0  0
0 0  0
0 0  0
0 0  0
0 0  0
0 0  0
0 0  0
0 0  0
0 0  0
0 0  0
0 0  0
0 0  0
0 0  0
0 0  0
0 0  0
0 0  0
0 0  0
0 0  0
0 0  0
0 0  0
0 0  0
0 0  0
0 0  0
0 0  0
0 0  0
0 0  0
0 0  0
0 0  0
0 0  0
0 0  0
0 0  0
0 0  0
0 0  0
0 0  0
0 0  0
0 0  0
0 0  0
0 0  0
0 0  0
0 0  0
0 0  0
0 0  0
0 0  0
0 0  0
0 0  0
0 0  0
0 0  0
0 0  0
0 0  0
0 0  0
0 0  0
0 0  0
0 0  0
0 0  0
0 0  0
0 0  0
0 0  0
0 0  0
0 0  0
0 0  0
0 0  0
0 0  0
0 0  0
0 0  0
0 -8.07906e-05  0
-3.60883e-05 7.92906e-05  0
-0.00016967 0.000258442  0
-0.000417458 0.000417149  0
-0.000765077 0.000559695  0
-0.00120053 0.000685705  0
-0.001709 0.000787452  0
-0.0022711 0.000857349  0
-0.00286436 0.000892093  0
-0.00346577 0.000892688  0
-0.0040538 0.000862737  0
-0.0046095 0.000806693  0
-0.00511675 0.000728696  0
-0.00556195 0.000631959  0
-0.00593349 0.000518566  0
-0.0062211 0.000389528  0
-0.00641525 0.000244981  0
-0.00650669 8.44797e-05  0
-0.00648595 -9.27033e-05  0
-0.00634335 -0.000286941  0
-0.0060692 -0.000498628  0
-0.00565386 -0.000728137  0
-0.00508771 -0.000975665  0
-0.00436121 -0.00124118  0
-0.003465 -0.00152439  0
-0.00239009 -0.00182473  0
-0.001128 -0.00214125  0
0.000328624 -0.0024726  0
0.00198594 -0.00281742  0
0.00384947 -0.00317405  0
0.00592377 -0.00354005  0
0.00821157 -0.00391207  0
0.0107136 -0.00428682  0
0.0134287 -0.00466031  0
0.0163531 -0.00502704  0
0.0194799 -0.00538122  0
0.0227987 -0.00571673  0
0.0262958 -0.0060272  0
0.0299538 -0.00630567  0
0.0337514 -0.00654441  0
0.0376627 -0.00673571  0
0.0416573 -0.00687225  0
0.0457007 -0.0069473  0
0.0497543 -0.00695515  0
0.053776 -0.00689136  0
0.0577206 -0.00675306  0
0.0615404 -0.00653917  0
0.0651862 -0.00625057  0
0.0686076 -0.00588995  0
0.0717544 -0.00546161  0
0.0745761 -0.00497086  0
0.0770232 -0.00442316  0
0.0790457 -0.003823  0
0.0805929 -0.0031726  0
0.0816113 -0.00247084  0
0.0820423 -0.00171255  0
0.0818199 -0.000888829  0
0.0808702 7.8063e-06  0
0.0791162 0.000983314  0
0.0764778 0.0020532  0
0.0728639 0.0032388  0
0.0681659 0.00457105  0
0.0622486 0.00608541  0
0.0549668 0.00778664  0
0.0461939 0.00968742  0
0.0357728 0.0118777  0
0.0235079 0.0143232  0
0.00924859 0.0169532  0
-0.00701572 0.0197822  0
-0.0252212 0.0227861  0
-0.0453427 0.025878  0
-0.0673297 0.0289737  0
-0.0910625 0.0320054  0
-0.116347 0.0349235  0
-0.142924 0.0376365  0
-0.170501 0.0400582  0
-0.19876 0.0421141  0
-0.227363 0.0437486  0
-0.255968 0.044917  0
-0.284242 0.0455907  0
-0.311872 0.0457586  0
-0.338573 0.0454262  0
-0.364096 0.0446148  0
-0.388226 0.0433588  0
-0.410791 0.0417037  0
-0.431658 0.0397029  0
-0.450734 0.0374151  0
-0.46796 0.0349008  0
-0.483311 0.0322203  0
-0.496791 0.0294306  0
-0.508425 0.0265833  0
-0.51826 0.0237231  0
-0.526355 0.0208868  0
-0.532778 0.0181036  0
-0.537604 0.0153953  0
-0.540908 0.0127751  0
-0.542763 0.0102486  0
-0.543241 0.00781825  0
-0.542407 0.00548382  0
-0.540319 0.00323334  0
-0.537027 0.00106479  0
-0.532563 -0.00103499  0
-0.526958 -0.0030767  0
-0.520271 -0.0050832  0
-0.512566 -0.00705772  0
-0.503886 -0.00900368  0
-0.49426 -0.0109248  0
-0.483711 -0.0128268  0
-0.47226 -0.0147134  0
-0.45993 -0.0165835  0
-0.446742 -0.0184334  0
-0.432719 -0.0202571  0
-0.417889 -0.0220469  0
-0.40228 -0.0237931  0
-0.385927 -0.0254844  0
-0.368868 -0.027108  0
-0.351147 -0.0286504  0
-0.332813 -0.0300975  0
-0.313919 -0.0314357  0
-0.294524 -0.032651  0
-0.274691 -0.0337292  0
-0.254491 -0.0346591  0
-0.233994 -0.0354321  0
-0.213273 -0.0360376  0
-0.192408 -0.0364641  0
-0.171482 -0.0367116  0
-0.15057 -0.036786  0
-0.12975 -0.0366687  0
-0.109111 -0.0363623  0
-0.0887291 -0.0358959  0
-0.0686701 -0.0352532  0
-0.049023 -0.034417  0
-0.0298525 -0.0334818  0
-0.0111943 -0.0323743  0
0.00681416 -0.0311002  0
0.024018 -0.0296875  0
0.0404064 -0.0281328  0
0.0560027 -0.0265151  0
0.0707854 -0.02486  0
0.0847302 -0.0231813  0
0.0978175 -0.0214898  0
0.110034 -0.0197965  0
0.121374 -0.0181127  0
0.131836 -0.0164504  0
0.141427 -0.0148212  0
0.150159 -0.0132363  0
0.158049 -0.0117062  0
0.165119 -0.0102402  0
0.171397 -0.00884665  0
0.176915 -0.00753277  0
0.18171 -0.00630458  0
0.185822 -0.00516696  0
0.189294 -0.0041236  0
0.192174 -0.00317711  0
0.19451 -0.00232895  0
0.196352 -0.00157943  0
0.197749 -0.00092742  0
0.198751 -0.000373501  0
0.199406 8.69572e-05  0
0.199775 0.000460025  0
0.199913 0.000756436  0
0.19986 0.000981236  0
0.199657 0.00113864  0
0.199342 0.0012344  0
0.198947 0.00127477  0
0.198504 0.00126612  0
0.198041 0.00121482  0
0.197581 0.00112712  0
0.197144 0.00100897  0
0.196747 0.000865991  0
0.196405 0.000703431  0
0.196127 0.000526182  0
0.195923 0.000338884  0
0.195797 0.00014625  0
0.195754 -4.57757e-05  0
0.195793 -0.000232218  0
0.195913 -0.000411468  0
0.196111 -0.000581687  0
0.196382 -0.00074135  0
0.196721 -0.000889218  0
0.19712 -0.0010243  0
0.197574 -0.00114581  0
0.198074 -0.00125318  0
0.198613 -0.00134598  0
0.199182 -0.00142393  0
0.199773 -0.00148684  0
0.200376 -0.00153464  0
0.200982 -0.00156733  0
0.201583 -0.00158495  0
0.202168 -0.00158758  0
0.202729 -0.00157532  0
0.203255 -0.00154828  0
0.203738 -0.00150659  0
0.204169 -0.0014503  0
0.204537 -0.00137943  0
0.204834 -0.00129408  0
0.205049 -0.00119429  0
0.205175 -0.00107981  0
0.2052 -0.000950324  0
0.205116 -0.000806258  0
0.204913 -0.000647759  0
0.204583 -0.000474115  0
0.204117 -0.000284377  0
0.203502 -7.70025e-05  0
0.202725 0.000147582  0
0.201772 0.000389067  0
0.200633 0.000647846  0
0.199301 0.000924373  0
0.19777 0.00121775  0
0.196033 0.00152733  0
0.194084 0.00185245  0
0.191915 0.00219214  0
0.189522 0.00254523  0
0.186899 0.00291076  0
0.184045 0.00328736  0
0.180955 0.00367333  0
0.177631 0.00406663  0
0.174074 0.00446492  0
0.170286 0.00486554  0
0.166272 0.0052655  0
0.162041 0.00566153  0
0.157601 0.00605009  0
0.152964 0.00642736  0
0.148144 0.00678935  0
0.143158 0.0071319  0
0.138024 0.00745076  0
0.132762 0.00774165  0
0.127396 0.00800032  0
0.121951 0.00822268  0
0.116452 0.00840481  0
0.110928 0.00854312  0
0.105409 0.00863437  0
0.0999224 0.00867576  0
0.0945004 0.00866505  0
0.0891732 0.00860055  0
0.0839711 0.00848122  0
0.0789238 0.00830669  0
0.0740602 0.00807726  0
0.0694079 0.00779393  0
0.0649929 0.00745839  0
0.0608394 0.00707295  0
0.0569694 0.00664053  0
0.0534028 0.00616458  0
0.0501569 0.00564899  0
0.0472469 0.00509794  0
0.0446849 0.00451574  0
0.0424808 0.00390661  0
0.0406413 0.00327527  0
0.0391693 0.00263248  0
0.0380576 0.00201942  0
0.0372644 0.00158263  0
0 0  0
0 0  0
0 0  0
0 0  0
0 0  0
0 0  0
0 0  0
0 0  0
0 0  0
0 0  0
0 0  0
0 0  0
0 0  0
0 0  0
0 0  0
0 0  0
0 0  0
0 0  0
0 0  0
0 0  0
0 0  0
0 0  0
0 0  0
0 0  0
0 0  0
0 0  0
0 0  0
0 0  0
0 0  0
0 0  0
0 0  0
0 0  0
0 0  0
0 0  0
0 0  0
0 0  0
0 0  0
0 0  0
0 0  0
0 0  0
0 0  0
0 0  0
0 0  0
0 0  0
0 0  0
0 0  0
0 0  0
0 0  0
0 0  0
0 0  0
0 0  0
0 0  0
0 0  0
0 0  0
0 0  0
0 0  0
0 0  0
0 0  0
0 0  0
0 0  0
0 0  0
0 0  0
0 0  0
0 0  0
0 0  0
0 0  0
0 0  0
0 0  0
0 0  0
0 0  0
0 0  0
0 0  0
0 0  0
0 0  0
0 0  0
0 0  0
0 0  0
0 0  0
0 0  0
0 0  0
0 0  0
0 0  0
0 0  0
0 0  0
0 0  0
0 0  0
0 0  0
0 0  0
0 0  0
0 0  0
0 0  0
0 0  0
0 0  0
0 0  0
0 0  0
0 0  0
0 0  0
0 0  0
0 0  0
0 0  0
0 0  0
0 0  0
0 0  0
0 0  0
0 0  0
0 0  0
0 0  0
0 0  0
0 0  0
0 0  0
0 0  0
0 0  0
0 0  0
0 0  0
0 0  0
0 0  0
0 0  0
0 0  0
0 0  0
0 0  0
0 0  0
0 0  0
0 0  0
0 0  0
0 0  0
0 0  0
0 0  0
0 0  0
0 0  0
0 0  0
0 0  0
0 0  0
0 0  0
0 0  0
0 0  0
0 0  0
0 0  0
0 0  0
0 0  0
0 0  0
0 0  0
0 0  0
0 0  0
0 0  0
0 0  0
0 0  0
0 0  0
0 0  0
0 0  0
0 0  0
0 0  0
0 0  0
0 0  0
0 0  0
0 0  0
0 0  0
0 0  0
0 0  0
0 0  0
0 0  0
0 0  0
0 0  0
0 0  0
0 0  0
0 0  0
0 0  0
0 0  0
0 0  0
0 0  0
0 0  0
0 0  0
0 0  0
0 0  0
0 0  0
0 0  0
0 0  0
0 0  0
0 0  0
0 0  0
0 0  0
0 0  0
0 0  0
0 0  0
0 0  0
0 0  0
0 0  0
0 0  0
0 0  0
0 0  0
0 0  0
0 0  0
0 0  0
0 0  0
0 0  0
0 0  0
0 0  0
0 0  0
0 0  0
0 0  0
0 0  0
0 0  0
0 0  0
0 0  0
0 0  0
0 0  0
0 0  0
0 0  0
0 0  0
0 0  0
0 0  0
0 0  0
0 0  0
0 0  0
0 0  0
0 0  0
0 0  0
0 0  0
0 0  0
0 0  0
0 0  0
0 0  0
0 0  0
0 0  0
0 0  0
0 0  0
0 0  0
0 0  0
0 0  0
0 0  0
0 0  0
0 0  0
0 0  0
0 0  0
0 0  0
0 0  0
0 0  0
0 0  0
0 0  0
0 0  0
0 0  0
0 0  0
0 0  0
0 0  0
0 0  0
0 0  0
0 0  0
0 0  0
0 0  0
0 0  0
0 -0.000171788  0
-5.50349e-05 0.000170453  0
-0.000255448 0.00050132  0
-0.000620581 0.000787205  0
-0.00112298 0.00103967  0
-0.00174023 0.00125845  0
-0.0024488 0.00143177  0
-0.00322203 0.00154837  0
-0.00403144 0.00160376  0
-0.00484915 0.00160016  0
-0.00564974 0.0015439  0
-0.00641116 0.00144268  0
-0.00711491 0.00130372  0
-0.00774556 0.00113281  0
-0.00829022 0.000933928  0
-0.00873779 0.00070936  0
-0.0090784 0.00045993  0
-0.00930281 0.000185399  0
-0.00940199 -0.000115171  0
-0.00936639 -0.000442663  0
-0.00918627 -0.000797166  0
-0.00885225 -0.00117893  0
-0.00835521 -0.00158804  0
-0.00768624 -0.00202426  0
-0.00683675 -0.00248699  0
-0.00579857 -0.00297521  0
-0.00456404 -0.00348737  0
-0.00312598 -0.00402114  0
-0.00147797 -0.00457419  0
0.000384439 -0.00514321  0
0.00246391 -0.00572465  0
0.0047623 -0.00631364  0
0.00727959 -0.00690454  0
0.0100141 -0.00749214  0
0.0129618 -0.00806732  0
0.0161152 -0.00862114  0
0.0194634 -0.00914383  0
0.0229919 -0.00962566  0
0.0266828 -0.0100561  0
0.0305138 -0.0104226  0
0.0344576 -0.0107126  0
0.038482 -0.0109143  0
0.0425495 -0.0110161  0
0.0466175 -0.011008  0
0.0506386 -0.0108813  0
0.0545604 -0.0106295  0
0.058326 -0.0102482  0
0.0618746 -0.0097358  0
0.0651413 -0.0090929  0
0.0680582 -0.00832224  0
0.0705539 -0.00742773  0
0.0725537 -0.00641314  0
0.0739785 -0.00528029  0
0.074743 -0.004027  0
0.0747532 -0.00264498  0
0.0739 -0.0011162  0
0.0720766 0.000560551  0
0.0691937 0.00239116  0
0.0651465 0.00440113  0
0.0598039 0.00661638  0
0.0530291 0.00906441  0
0.0446871 0.0117853  0
0.0346083 0.0148673  0
0.0225894 0.0183055  0
0.00846597 0.022065  0
-0.00779205 0.0261793  0
-0.0261426 0.0306371  0
-0.04658 0.035336  0
-0.0690799 0.0401638  0
-0.093541 0.0450711  0
-0.119777 0.0499508  0
-0.14755 0.0546606  0
-0.176575 0.0590765  0
-0.206521 0.0630819  0
-0.237023 0.0665582  0
-0.267712 0.0694022  0
-0.298217 0.0715336  0
-0.328184 0.0728987  0
-0.357281 0.0734693  0
-0.385212 0.0732427  0
-0.411715 0.0722404  0
-0.436575 0.0705057  0
-0.459617 0.0680999  0
-0.480712 0.0650985  0
-0.49977 0.0615874  0
-0.516742 0.0576585  0
-0.531612 0.0534053  0
-0.544396 0.04892  0
-0.555133 0.0442897  0
-0.563886 0.0395938  0
-0.570733 0.0349012  0
-0.57576 0.0302682  0
-0.579063 0.0257391  0
-0.580736 0.0213472  0
-0.580874 0.0171155  0
-0.57957 0.0130548  0
-0.576907 0.00916178  0
-0.572959 0.00543406  0
-0.56779 0.00186538  0
-0.56149 -0.00153558  0
-0.554153 -0.00479575  0
-0.54585 -0.00794073  0
-0.536641 -0.0109856  0
-0.526561 -0.0139417  0
-0.515637 -0.0168275  0
-0.503893 -0.0196579  0
-0.491347 -0.0224422  0
-0.478018 -0.0251879  0
-0.463923 -0.0278984  0
-0.449079 -0.0305726  0
-0.433506 -0.0332056  0
-0.417225 -0.0357889  0
-0.400259 -0.0383114  0
-0.382636 -0.04076  0
-0.364387 -0.0431194  0
-0.345548 -0.0453716  0
-0.326158 -0.0474974  0
-0.306265 -0.0494778  0
-0.285919 -0.0512957  0
-0.265172 -0.0529331  0
-0.244084 -0.0543668  0
-0.222724 -0.0555825  0
-0.201157 -0.0565727  0
-0.179447 -0.0573277  0
-0.157668 -0.0578176  0
-0.135906 -0.0580465  0
-0.114227 -0.0580427  0
-0.0926907 -0.0577679  0
-0.0713836 -0.057209  0
-0.0503935 -0.0564212  0
-0.0297649 -0.0554155  0
-0.00952963 -0.0541371  0
0.0101466 -0.0526083  0
0.0290936 -0.050853  0
0.0473126 -0.048849  0
0.0648339 -0.0466639  0
0.081643 -0.044354  0
0.0977081 -0.0419552  0
0.112996 -0.039491  0
0.127482 -0.0369802  0
0.141144 -0.0344407  0
0.153972 -0.0318899  0
0.165959 -0.0293457  0
0.177104 -0.0268256  0
0.187414 -0.0243469  0
0.196898 -0.021926  0
0.20557 -0.0195781  0
0.213449 -0.0173174  0
0.220558 -0.0151565  0
0.226924 -0.0131069  0
0.232576 -0.0111781  0
0.237549 -0.00937849  0
0.241879 -0.00771474  0
0.245605 -0.00619196  0
0.248769 -0.0048136  0
0.251414 -0.0035813  0
0.253585 -0.0024947  0
0.255329 -0.00155185  0
0.25669 -0.000750731  0
0.257708 -8.87192e-05  0
0.25843 0.000445915  0
0.258911 0.000863156  0
0.259195 0.00117486  0
0.25932 0.00138921  0
0.259319 0.00151564  0
0.259223 0.00156379  0
0.25906 0.00154352  0
0.258854 0.00146452  0
0.258627 0.00133611  0
0.258395 0.00116719  0
0.258173 0.000966107  0
0.257974 0.000740675  0
0.257804 0.000498176  0
0.257672 0.000245453  0
0.257581 -1.05617e-05  0
0.257536 -0.000262096  0
0.257539 -0.000504741  0
0.257588 -0.000735297  0