# vtk DataFile Version 4.0
Nusif VTK output
ASCII
DATASET STRUCTURED_POINTS
DIMENSIONS 500 50 1
ORIGIN 0 0 0 
SPACING 0.03 0.03 1
POINT_DATA 25000 

VECTORS velocity double
0 0  0
0 0  0
0 0  0
0 0  0
0 0  0
0 0  0
0 0  0
0 0  0
0 0  0
0 0  0
0 0  0
0 0  0
0 0  0
0 0  0
0 0  0
0 0  0
0 0  0
0 0  0
0 0  0
0 0  0
0 0  0
0 0  0
0 0  0
0 0  0
0 0  0
0 0  0
0 0  0
0 0  0
0 0  0
0 0  0
0 0  0
0 0  0
0 0  0
0 0  0
0 0  0
0 0  0
0 0  0
0 0  0
0 0  0
0 0  0
0 0  0
0 0  0
0 0  0
0 0  0
0 0  0
0 0  0
0 0  0
0 0  0
0 0  0
0 0  0
0 0  0
0 0  0
0 0  0
0 0  0
0 0  0
0 0  0
0 0  0
0 0  0
0 0  0
0 0  0
0 0  0
0 0  0
0 0  0
0 0  0
0 0  0
0 0  0
0 0  0
0 0  0
0 0  0
0 0  0
0 0  0
0 0  0
0 0  0
0 0  0
0 0  0
0 0  0
0 0  0
0 0  0
0 0  0
0 0  0
0 0  0
0 0  0
0 0  0
0 0  0
0 0  0
0 0  0
0 0  0
0 0  0
0 0  0
0 0  0
0 0  0
0 0  0
0 0  0
0 0  0
0 0  0
0 0  0
0 0  0
0 0  0
0 0  0
0 0  0
0 0  0
0 0  0
0 0  0
0 0  0
0 0  0
0 0  0
0 0  0
0 0  0
0 0  0
0 0  0
0 0  0
0 0  0
0 0  0
0 0  0
0 0  0
0 0  0
0 0  0
0 0  0
0 0  0
0 0  0
0 0  0
0 0  0
0 0  0
0 0  0
0 0  0
0 0  0
0 0  0
0 0  0
0 0  0
0 0  0
0 0  0
0 0  0
0 0  0
0 0  0
0 0  0
0 0  0
0 0  0
0 0  0
0 0  0
0 0  0
0 0  0
0 0  0
0 0  0
0 0  0
0 0  0
0 0  0
0 0  0
0 0  0
0 0  0
0 0  0
0 0  0
0 0  0
0 0  0
0 0  0
0 0  0
0 0  0
0 0  0
0 0  0
0 0  0
0 0  0
0 0  0
0 0  0
0 0  0
0 0  0
0 0  0
0 0  0
0 0  0
0 0  0
0 0  0
0 0  0
0 0  0
0 0  0
0 0  0
0 0  0
0 0  0
0 0  0
0 0  0
0 0  0
0 0  0
0 0  0
0 0  0
0 0  0
0 0  0
0 0  0
0 0  0
0 0  0
0 0  0
0 0  0
0 0  0
0 0  0
0 0  0
0 0  0
0 0  0
0 0  0
0 0  0
0 0  0
0 0  0
0 0  0
0 0  0
0 0  0
0 0  0
0 0  0
0 0  0
0 0  0
0 0  0
0 0  0
0 0  0
0 0  0
0 0  0
0 0  0
0 0  0
0 0  0
0 0  0
0 0  0
0 0  0
0 0  0
0 0  0
0 0  0
0 0  0
0 0  0
0 0  0
0 0  0
0 0  0
0 0  0
0 0  0
0 0  0
0 0  0
0 0  0
0 0  0
0 0  0
0 0  0
0 0  0
0 0  0
0 0  0
0 0  0
0 0  0
0 0  0
0 0  0
0 0  0
0 0  0
0 0  0
0 0  0
0 0  0
0 0  0
0 0  0
0 0  0
0 0  0
0 0  0
0 0  0
0 2.40873e-05  0
2.41127e-05 -2.41132e-05  0
5.69179e-05 -8.69267e-06  0
3.69933e-05 2.86167e-05  0
-5.96003e-05 6.79764e-05  0
-0.000229143 0.000101566  0
-0.000457919 0.00012721  0
-0.00073033 0.000145201  0
-0.00103232 0.000156792  0
-0.00135259 0.000163475  0
-0.00168271 0.000166641  0
-0.00201679 0.000167445  0
-0.002351 0.000166762  0
-0.00268298 0.000165214  0
-0.0030114 0.000163207  0
-0.00333559 0.000160985  0
-0.00365525 0.000158675  0
-0.00397025 0.000156323  0
-0.0042805 0.00015393  0
-0.0045859 0.00015147  0
-0.00488628 0.000148903  0
-0.00518136 0.000146183  0
-0.00547081 0.000143268  0
-0.0057542 0.000140115  0
-0.006031 0.000136687  0
-0.00630063 0.000132947  0
-0.00656244 0.000128863  0
-0.00681571 0.000124405  0
-0.00705966 0.000119545  0
-0.00729346 0.00011426  0
-0.00751625 0.000108528  0
-0.00772711 0.000102333  0
-0.00792511 9.56656e-05  0
-0.0081093 8.85221e-05  0
-0.00827873 8.09079e-05  0
-0.00843248 7.28385e-05  0
-0.00856966 6.43414e-05  0
-0.00868945 5.54571e-05  0
-0.00879115 4.62418e-05  0
-0.00887416 3.67683e-05  0
-0.00893806 2.71287e-05  0
-0.00898262 1.74365e-05  0
-0.00900789 7.82734e-06  0
-0.00901417 -1.54734e-06  0
-0.00900202 -1.06054e-05  0
-0.00897223 -1.9184e-05  0
-0.008926 -2.70434e-05  0
-0.00886498 -3.39778e-05  0
-0.00879124 -3.97575e-05  0
-0.00870735 -4.41354e-05  0
-0.00861636 -4.68527e-05  0
-0.00852186 -4.76447e-05  0
-0.00842796 -4.62592e-05  0
-0.00833922 -4.24815e-05  0
-0.00826074 -3.59984e-05  0
-0.00819819 -2.65538e-05  0
-0.00815778 -1.38551e-05  0
-0.00814633 2.40493e-06  0
-0.00817108 2.23463e-05  0
-0.00823963 4.62074e-05  0
-0.00836008 7.42426e-05  0
-0.008541 0.000106671  0
-0.00879135 0.000143682  0
-0.00912047 0.000185435  0
-0.00953796 0.000232059  0
-0.0100537 0.000283637  0
-0.0106775 0.000340202  0
-0.0114194 0.000401729  0
-0.0122893 0.000468116  0
-0.0132966 0.000539178  0
-0.0144504 0.00061463  0
-0.0157591 0.000694078  0
-0.0172302 0.000777002  0
-0.0188699 0.00086275  0
-0.0206832 0.000950526  0
-0.0226731 0.00103939  0
-0.0248408 0.00112826  0
-0.0271849 0.0012159  0
-0.0297018 0.00130099  0
-0.0323849 0.00138207  0
-0.0352246 0.00145764  0
-0.0382084 0.00152618  0
-0.0413208 0.00158619  0
-0.0445432 0.00163627  0
-0.0478547 0.00167517  0
-0.0512317 0.00170182  0
-0.0546489 0.00171544  0
-0.0580799 0.00171554  0
-0.0614974 0.00170191  0
-0.0648739 0.00167467  0
-0.0681828 0.0016342  0
-0.0713981 0.00158109  0
-0.0744953 0.00151609  0
-0.0774514 0.00144007  0
-0.0802455 0.00135393  0
-0.082858 0.00125858  0
-0.0852715 0.00115489  0
-0.08747 0.00104367  0
-0.0894393 0.000925641  0
-0.0911665 0.000801539  0
-0.0926401 0.000672051  0
-0.0938501 0.000537943  0
-0.0947883 0.000400191  0
-0.0954474 0.000258979  0
-0.0958241 0.000117687  0
-0.0959195 -2.23304e-05  0
-0.0957293 -0.000167833  0
-0.0952447 -0.000316787  0
-0.0944616 -0.000466358  0
-0.0933802 -0.000615016  0
-0.0920035 -0.000761683  0
-0.0903364 -0.000905408  0
-0.0883858 -0.00104526  0
-0.0861602 -0.00118029  0
-0.0836703 -0.0013096  0
-0.0809284 -0.00143231  0
-0.0779485 -0.0015476  0
-0.0747463 -0.00165464  0
-0.071339 -0.00175262  0
-0.0677455 -0.0018409  0
-0.0639857 -0.00191896  0
-0.0600804 -0.00198627  0
-0.0560519 -0.00204228  0
-0.0519229 -0.00208674  0
-0.0477165 -0.00211965  0
-0.043456 -0.00214083  0
-0.0391653 -0.00214996  0
-0.0348678 -0.00214756  0
-0.030586 -0.00213425  0
-0.0263424 -0.00210935  0
-0.0221584 -0.00207461  0
-0.0180538 -0.00203003  0
-0.0140484 -0.00197538  0
-0.0101583 -0.00191473  0
-0.00639975 -0.00184383  0
-0.00278724 -0.00176868  0
0.000666011 -0.00168458  0
0.00394515 -0.00159457  0
0.00704179 -0.00150208  0
0.0099517 -0.00140785  0
0.012672 -0.00131244  0
0.0152009 -0.00121649  0
0.017538 -0.00112066  0
0.0196843 -0.00102565  0
0.021642 -0.000932088  0
0.0234147 -0.000840569  0
0.0250069 -0.000751628  0
0.0264242 -0.000665732  0
0.0276732 -0.000583283  0
0.0287611 -0.000504613  0
0.0296957 -0.000429993  0
0.0304853 -0.000359634  0
0.0311386 -0.000293701  0
0.0316646 -0.00023232  0
0.0320725 -0.000175591  0
0.0323717 -0.000123598  0
0.0325717 -7.64128e-05  0
0.0326821 -3.40752e-05  0
0.0327127 3.51726e-06  0
0.0326723 3.68755e-05  0
0.0325704 6.49567e-05  0
0.0324174 8.79899e-05  0
0.032223 0.000106419  0
0.0319959 0.000120671  0
0.0317441 0.000131124  0
0.0314748 0.000138116  0
0.0311947 0.00014196  0
0.0309098 0.000142957  0
0.0306254 0.0001414  0
0.0303464 0.000137578  0
0.030077 0.000131777  0
0.0298209 0.000124278  0
0.0295813 0.000115357  0
0.0293606 0.000105284  0
0.029161 9.4318e-05  0
0.0289839 8.27092e-05  0
0.0288305 7.06936e-05  0
0.0287013 5.84921e-05  0
0.0285965 4.63068e-05  0
0.0285158 3.43165e-05  0
0.0284588 2.26705e-05  0
0.0284246 1.14858e-05  0
0.0284122 8.66582e-07  0
0.0284202 -8.86863e-06  0
0.0284466 -1.75777e-05  0
0.0284895 -2.53334e-05  0
0.0285469 -3.20488e-05  0
0.0286166 -3.76947e-05  0
0.0286965 -4.22609e-05  0
0.0287845 -4.57446e-05  0
0.0288783 -4.81498e-05  0
0.0289759 -4.94892e-05  0
0.0290752 -4.97829e-05  0
0.029174 -4.90567e-05  0
0.0292704 -4.73386e-05  0
0.0293623 -4.46531e-05  0
0.029448 -4.10145e-05  0
0.0295254 -3.6427e-05  0
0.0295928 -3.10101e-05  0
0.0296485 -2.47897e-05  0
0.0296911 -1.78143e-05  0
0.029719 -1.01464e-05  0
0.029731 -1.83419e-06  0
0.0297256 7.20292e-06  0
0.0297015 1.68977e-05  0
0.0296574 2.71688e-05  0
0.0295922 3.79604e-05  0
0.029505 4.92226e-05  0
0.0293948 6.09055e-05  0
0.0292609 7.29578e-05  0
0.0291026 8.53261e-05  0
0.0289193 9.79541e-05  0
0.0287105 0.000110783  0
0.0284759 0.000123751  0
0.0282154 0.000136793  0
0.0279287 0.00014984  0
0.027616 0.000162821  0
0.0272775 0.000175659  0
0.0269135 0.000188277  0
0.0265246 0.000200593  0
0.0261114 0.000212523  0
0.0256749 0.00022398  0
0.025216 0.000234875  0
0.024736 0.000245119  0
0.0242362 0.000254621  0
0.0237183 0.00026329  0
0.0231839 0.000271036  0
0.022635 0.000277771  0
0.0220738 0.00028341  0
0.0215025 0.000287871  0
0.0209235 0.000291077  0
0.0203394 0.000292957  0
0.019753 0.000293446  0
0.019167 0.00029249  0
0.0185845 0.00029004  0
0.0180083 0.000286061  0
0.0174417 0.000280528  0
0.0168877 0.000273428  0
0.0163495 0.000264761  0
0.0158301 0.000254539  0
0.0153328 0.000242787  0
0.0148604 0.00022954  0
0.014416 0.000214842  0
0.0140024 0.000198734  0
0.0136223 0.000181247  0
0.0132787 0.000162403  0
0.0129739 0.000142274  0
0.0127104 0.000121239  0
0.0124884 0.000100687  0
0.0123037 8.40443e-05  0
0.0121456 7.40211e-05  0
0 0  0
0 0  0
0 0  0
0 0  0
0 0  0
0 0  0
0 0  0
0 0  0
0 0  0
0 0  0
0 0  0
0 0  0
0 0  0
0 0  0
0 0  0
0 0  0
0 0  0
0 0  0
0 0  0
0 0  0
0 0  0
0 0  0
0 0  0
0 0  0
0 0  0
0 0  0
0 0  0
0 0  0
0 0  0
0 0  0
0 0  0
0 0  0
0 0  0
0 0  0
0 0  0
0 0  0
0 0  0
0 0  0
0 0  0
0 0  0
0 0  0
0 0  0
0 0  0
0 0  0
0 0  0
0 0  0
0 0  0
0 0  0
0 0  0
0 0  0
0 0  0
0 0  0
0 0  0
0 0  0
0 0  0
0 0  0
0 0  0
0 0  0
0 0  0
0 0  0
0 0  0
0 0  0
0 0  0
0 0  0
0 0  0
0 0  0
0 0  0
0 0  0
0 0  0
0 0  0
0 0  0
0 0  0
0 0  0
0 0  0
0 0  0
0 0  0
0 0  0
0 0  0
0 0  0
0 0  0
0 0  0
0 0  0
0 0  0
0 0  0
0 0  0
0 0  0
0 0  0
0 0  0
0 0  0
0 0  0
0 0  0
0 0  0
0 0  0
0 0  0
0 0  0
0 0  0
0 0  0
0 0  0
0 0  0
0 0  0
0 0  0
0 0  0
0 0  0
0 0  0
0 0  0
0 0  0
0 0  0
0 0  0
0 0  0
0 0  0
0 0  0
0 0  0
0 0  0
0 0  0
0 0  0
0 0  0
0 0  0
0 0  0
0 0  0
0 0  0
0 0  0
0 0  0
0 0  0
0 0  0
0 0  0
0 0  0
0 0  0
0 0  0
0 0  0
0 0  0
0 0  0
0 0  0
0 0  0
0 0  0
0 0  0
0 0  0
0 0  0
0 0  0
0 0  0
0 0  0
0 0  0
0 0  0
0 0  0
0 0  0
0 0  0
0 0  0
0 0  0
0 0  0
0 0  0
0 0  0
0 0  0
0 0  0
0 0  0
0 0  0
0 0  0
0 0  0
0 0  0
0 0  0
0 0  0
0 0  0
0 0  0
0 0  0
0 0  0
0 0  0
0 0  0
0 0  0
0 0  0
0 0  0
0 0  0
0 0  0
0 0  0
0 0  0
0 0  0
0 0  0
0 0  0
0 0  0
0 0  0
0 0  0
0 0  0
0 0  0
0 0  0
0 0  0
0 0  0
0 0  0
0 0  0
0 0  0
0 0  0
0 0  0
0 0  0
0 0  0
0 0  0
0 0  0
0 0  0
0 0  0
0 0  0
0 0  0
0 0  0
0 0  0
0 0  0
0 0  0
0 0  0
0 0  0
0 0  0
0 0  0
0 0  0
0 0  0
0 0  0
0 0  0
0 0  0
0 0  0
0 0  0
0 0  0
0 0  0
0 0  0
0 0  0
0 0  0
0 0  0
0 0  0
0 0  0
0 0  0
0 0  0
0 0  0
0 0  0
0 0  0
0 0  0
0 0  0
0 0  0
0 0  0
0 0  0
0 0  0
0 0  0
0 0  0
0 0  0
0 0  0
0 0  0
0 0  0
0 0  0
0 0  0
0 0  0
0 0  0
0 0  0
0 0  0
0 0  0
0 0  0
0 0  0
0 0  0
0 0  0
0 0  0
0 0  0
0 5.7605e-05  0
9.43729e-06 -5.76639e-05  0
-2.7199e-05 2.86882e-05  0
-0.00020372 0.000187681  0
-0.000552125 0.000353911  0
-0.00106537 0.000498415  0
-0.00171772 0.000611488  0
-0.00247741 0.000693024  0
-0.00331368 0.000747235  0
-0.00420017 0.000779783  0
-0.005116 0.000796278  0
-0.00604566 0.000801558  0
-0.00697825 0.000799439  0
-0.00790645 0.000792715  0
-0.00882562 0.000783295  0
-0.00973291 0.000772382  0
-0.0106266 0.000760661  0
-0.0115058 0.000748457  0
-0.0123696 0.00073586  0
-0.0132175 0.000722824  0
-0.0140488 0.000709227  0
-0.0148627 0.000694912  0
-0.0156585 0.000679717  0
-0.0164349 0.00066348  0
-0.0171908 0.00064605  0
-0.0179249 0.00062729  0
-0.0186356 0.000607073  0
-0.0193214 0.000585289  0
-0.0199807 0.00056184  0
-0.0206116 0.000536648  0
-0.0212123 0.000509654  0
-0.021781 0.000480823  0
-0.022316 0.000450153  0
-0.0228155 0.000417674  0
-0.0232777 0.000383462  0
-0.0237014 0.000347639  0
-0.024085 0.000310384  0
-0.0244277 0.000271938  0
-0.0247289 0.000232607  0
-0.0249883 0.000192774  0
-0.0252061 0.0001529  0
-0.0253834 0.000113527  0
-0.0255217 7.52819e-05  0
-0.0256233 3.88616e-05  0
-0.0256914 4.96824e-06  0
-0.0257304 -2.55909e-05  0
-0.0257452 -5.20226e-05  0
-0.0257419 -7.33076e-05  0
-0.0257277 -8.83731e-05  0
-0.025711 -9.61108e-05  0
-0.0257015 -9.53712e-05  0
-0.0257102 -8.49684e-05  0
-0.0257493 -6.37073e-05  0
-0.0258326 -3.04391e-05  0
-0.0259749 1.57578e-05  0
-0.0261918 7.60523e-05  0
-0.0265003 0.000151608  0
-0.0269184 0.000243535  0
-0.0274651 0.000352733  0
-0.0281609 0.000480124  0
-0.0290267 0.000626563  0
-0.0300842 0.000792775  0
-0.0313556 0.00097934  0
-0.0328634 0.00118666  0
-0.03463 0.00141495  0
-0.0366777 0.00166415  0
-0.0390281 0.00193394  0
-0.0417018 0.00222366  0
-0.0447181 0.00253228  0
-0.0480941 0.00285832  0
-0.0518446 0.00319984  0
-0.0559814 0.00355436  0
-0.0605125 0.00391886  0
-0.0654416 0.00428976  0
-0.0707677 0.00466286  0
-0.0764841 0.00503344  0
-0.0825785 0.00539623  0
-0.089032 0.00574554  0
-0.0958191 0.00607533  0
-0.102908 0.00637935  0
-0.110259 0.00665135  0
-0.117828 0.00688523  0
-0.125564 0.00707529  0
-0.133411 0.00721648  0
-0.141309 0.00730459  0
-0.149196 0.00733647  0
-0.157008 0.00731019  0
-0.164681 0.00722507  0
-0.172153 0.00708171  0
-0.179364 0.0068819  0
-0.186256 0.00662838  0
-0.192779 0.00632468  0
-0.198884 0.00597482  0
-0.204529 0.00558302  0
-0.209678 0.00515358  0
-0.214297 0.00469071  0
-0.218359 0.00419837  0
-0.221841 0.00368016  0
-0.224722 0.00313939  0
-0.226986 0.00257944  0
-0.228622 0.00200344  0
-0.22962 0.00141484  0
-0.229977 0.000818559  0
-0.229695 0.000218018  0
-0.228767 -0.00039281  0
-0.227175 -0.00100886  0
-0.224917 -0.00162977  0
-0.222006 -0.00225044  0
-0.218456 -0.00286552  0
-0.214282 -0.00347092  0
-0.209502 -0.00406307  0
-0.204134 -0.00463863  0
-0.198203 -0.00519425  0
-0.191733 -0.00572657  0
-0.184754 -0.00623235  0
-0.177297 -0.00670856  0
-0.169396 -0.00715238  0
-0.161087 -0.00756094  0
-0.152409 -0.00793146  0
-0.143403 -0.00826171  0
-0.134111 -0.00855011  0
-0.124576 -0.00879509  0
-0.114843 -0.00899449  0
-0.104959 -0.00914758  0
-0.0949698 -0.00925484  0
-0.08492 -0.00931593  0
-0.0748566 -0.00932906  0
-0.0648262 -0.00929641  0
-0.0548714 -0.00922197  0
-0.0450356 -0.00910103  0
-0.0353616 -0.00894093  0
-0.0258864 -0.00874355  0
-0.0166505 -0.00850321  0
-0.00768608 -0.00824141  0
0.000974906 -0.0079367  0
0.00928528 -0.00759871  0
0.017215 -0.00723755  0
0.0247536 -0.00685935  0
0.0318899 -0.00647021  0
0.0386131 -0.00607289  0
0.0449153 -0.00566991  0
0.0507914 -0.00526402  0
0.0562391 -0.00485801  0
0.0612591 -0.00445466  0
0.0658549 -0.00405661  0
0.0700326 -0.00366636  0
0.0738007 -0.00328615  0
0.0771701 -0.00291801  0
0.0801538 -0.0025637  0
0.0827665 -0.00222474  0
0.0850244 -0.0019024  0
0.0869452 -0.0015977  0
0.0885478 -0.0013115  0
0.0898517 -0.00104449  0
0.0908776 -0.000797233  0
0.0916467 -0.000570221  0
0.0921808 -0.000363885  0
0.0925022 -0.00017857  0
0.092634 -1.4319e-05  0
0.092599 0.000130129  0
0.0924198 0.000252739  0
0.0921186 0.000354272  0
0.091717 0.000436208  0
0.0912348 0.000500119  0
0.0906908 0.000547511  0
0.0901019 0.00057981  0
0.0894839 0.000598387  0
0.0888507 0.000604585  0
0.0882151 0.00059973  0
0.0875882 0.000585136  0
0.0869797 0.000562098  0
0.0863978 0.000531894  0
0.0858494 0.000495766  0
0.08534 0.000454918  0
0.0848738 0.000410502  0
0.0844537 0.000363615  0
0.0840816 0.000315286  0
0.0837582 0.000266469  0
0.0834833 0.000218039  0
0.0832557 0.000170775  0
0.0830736 0.000125356  0
0.0829342 8.23556e-05  0
0.0828343 4.22666e-05  0
0.0827703 5.65907e-06  0
0.0827387 -2.69825e-05  0
0.082735 -5.50749e-05  0
0.0827538 -7.85389e-05  0
0.0827902 -9.7352e-05  0
0.0828391 -0.000111494  0
0.0828956 -0.000120967  0
0.0829546 -0.000125801  0
0.0830111 -0.000126066  0
0.0830605 -0.000121865  0
0.083098 -0.000113331  0
0.0831192 -0.000100617  0
0.0831197 -8.38958e-05  0
0.0830956 -6.33344e-05  0
0.0830431 -3.90622e-05  0
0.0829584 -1.10913e-05  0
0.0828376 2.03174e-05  0
0.0826771 5.48967e-05  0
0.0824739 9.24084e-05  0
0.0822249 0.000132644  0
0.0819275 0.000175474  0
0.0815795 0.000220662  0
0.0811791 0.000267961  0
0.0807242 0.000317139  0
0.0802135 0.000367959  0
0.0796456 0.000420181  0
0.0790196 0.000473557  0
0.0783347 0.000527828  0
0.0775907 0.000582726  0
0.0767875 0.000637972  0
0.0759253 0.000693275  0
0.0750048 0.000748333  0
0.0740269 0.000802834  0
0.0729929 0.000856451  0
0.0719046 0.000908851  0
0.0707639 0.000959688  0
0.0695733 0.00100861  0
0.0683357 0.00105526  0
0.0670541 0.00109928  0
0.0657323 0.00114029  0
0.064374 0.00117795  0
0.0629837 0.00121188  0
0.0615658 0.00124174  0
0.0601255 0.00126719  0
0.0586681 0.0012879  0
0.0571989 0.00130357  0
0.055724 0.0013139  0
0.0542494 0.00131865  0
0.0527812 0.00131759  0
0.0513259 0.00131052  0
0.0498899 0.0012973  0
0.0484798 0.00127782  0
0.0471022 0.001252  0
0.0457635 0.00121984  0
0.0444702 0.00118137  0
0.0432285 0.00113668  0
0.0420446 0.0010859  0
0.0409241 0.0010292  0
0.0398727 0.000966802  0
0.0388958 0.000898942  0
0.0379981 0.000825849  0
0.0371845 0.000747726  0
0.0364593 0.000664753  0
0.0358266 0.000577302  0
0.0352896 0.000486737  0
0.0348491 0.000397547  0
0.0345001 0.000320994  0
0.0342203 0.000274851  0
0 0  0
0 0  0
0 0  0
0 0  0
0 0  0
0 0  0
0 0  0
0 0  0
0 0  0
0 0  0
0 0  0
0 0  0
0 0  0
0 0  0
0 0  0
0 0  0
0 0  0
0 0  0
0 0  0
0 0  0
0 0  0
0 0  0
0 0  0
0 0  0
0 0  0
0 0  0
0 0  0
0 0  0
0 0  0
0 0  0
0 0  0
0 0  0
0 0  0
0 0  0
0 0  0
0 0  0
0 0  0
0 0  0
0 0  0
0 0  0
0 0  0
0 0  0
0 0  0
0 0  0
0 0  0
0 0  0
0 0  0
0 0  0
0 0  0
0 0  0
0 0  0
0 0  0
0 0  0
0 0  0
0 0  0
0 0  0
0 0  0
0 0  0
0 0  0
0 0  0
0 0  0
0 0  0
0 0  0
0 0  0
0 0  0
0 0  0
0 0  0
0 0  0
0 0  0
0 0  0
0 0  0
0 0  0
0 0  0
0 0  0
0 0  0
0 0  0
0 0  0
0 0  0
0 0  0
0 0  0
0 0  0
0 0  0
0 0  0
0 0  0
0 0  0
0 0  0
0 0  0
0 0  0
0 0  0
0 0  0
0 0  0
0 0  0
0 0  0
0 0  0
0 0  0
0 0  0
0 0  0
0 0  0
0 0  0
0 0  0
0 0  0
0 0  0
0 0  0
0 0  0
0 0  0
0 0  0
0 0  0
0 0  0
0 0  0
0 0  0
0 0  0
0 0  0
0 0  0
0 0  0
0 0  0
0 0  0
0 0  0
0 0  0
0 0  0
0 0  0
0 0  0
0 0  0
0 0  0
0 0  0
0 0  0
0 0  0
0 0  0
0 0  0
0 0  0
0 0  0
0 0  0
0 0  0
0 0  0
0 0  0
0 0  0
0 0  0
0 0  0
0 0  0
0 0  0
0 0  0
0 0  0
0 0  0
0 0  0
0 0  0
0 0  0
0 0  0
0 0  0
0 0  0
0 0  0
0 0  0
0 0  0
0 0  0
0 0  0
0 0  0
0 0  0
0 0  0
0 0  0
0 0  0
0 0  0
0 0  0
0 0  0
0 0  0
0 0  0
0 0  0
0 0  0
0 0  0
0 0  0
0 0  0
0 0  0
0 0  0
0 0  0
0 0  0
0 0  0
0 0  0
0 0  0
0 0  0
0 0  0
0 0  0
0 0  0
0 0  0
0 0  0
0 0  0
0 0  0
0 0  0
0 0  0
0 0  0
0 0  0
0 0  0
0 0  0
0 0  0
0 0  0
0 0  0
0 0  0
0 0  0
0 0  0
0 0  0
0 0  0
0 0  0
0 0  0
0 0  0
0 0  0
0 0  0
0 0  0
0 0  0
0 0  0
0 0  0
0 0  0
0 0  0
0 0  0
0 0  0
0 0  0
0 0  0
0 0  0
0 0  0
0 0  0
0 0  0
0 0  0
0 0  0
0 0  0
0 0  0
0 0  0
0 0  0
0 0  0
0 0  0
0 0  0
0 0  0
0 0  0
0 0  0
0 0  0
0 0  0
0 0  0
0 0  0
0 0  0
0 0  0
0 0  0
0 0  0
0 0  0
0 0  0
0 0  0
0 0  0
0 0  0
0 0  0
0 0  0
0 0  0
0 0  0
0 0  0
0 0  0
0 0  0
0 0  0
0 3.69313e-05  0
-3.01395e-05 -3.69622e-05  0
-0.000198276 0.000212759  0
-0.000599908 0.000581763  0
-0.00124974 0.000958065  0
-0.00212929 0.00128705  0
-0.00320227 0.00154817  0
-0.00442604 0.00173981  0
-0.00575914 0.00186983  0
-0.00716531 0.00194984  0
-0.00861509 0.00199184  0
-0.010086 0.00200653  0
-0.0115615 0.00200258  0
-0.0130302 0.00198651  0
-0.0144845 0.00196292  0
-0.0159193 0.00193483  0
-0.0173314 0.00190406  0
-0.0187188 0.00187158  0
-0.02008 0.00183778  0
-0.0214139 0.00180271  0
-0.0227195 0.00176621  0
-0.0239956 0.001728  0
-0.025241 0.00168778  0
-0.0264544 0.00164524  0
-0.0276343 0.00160007  0
-0.0287789 0.00155201  0
-0.0298867 0.00150081  0
-0.0309555 0.00144626  0
-0.0319836 0.0013882  0
-0.032969 0.00132651  0
-0.0339096 0.00126111  0
-0.0348035 0.00119203  0
-0.0356489 0.00111932  0
-0.0364441 0.00104317  0
-0.0371877 0.000963859  0
-0.0378786 0.000881772  0
-0.0385162 0.000797444  0
-0.0391001 0.00071155  0
-0.0396309 0.000624925  0
-0.0401096 0.00053857  0
-0.0405383 0.000453663  0
-0.0409198 0.000371558  0
-0.0412581 0.000293785  0
-0.0415582 0.000222045  0
-0.0418265 0.00015822  0
-0.0420707 0.000104299  0
-0.0423001 6.23334e-05  0
-0.0425257 3.46691e-05  0
-0.04276 2.377e-05  0
-0.0430171 3.21813e-05  0
-0.0433128 6.25169e-05  0
-0.0436645 0.000117436  0
-0.0440911 0.000199604  0
-0.0446131 0.000311624  0
-0.045253 0.000455836  0
-0.0460348 0.000634734  0
-0.0469841 0.000850709  0
-0.0481276 0.00110598  0
-0.0494931 0.0014026  0
-0.0511095 0.00174235  0
-0.053006 0.00212667  0
-0.0552125 0.00255667  0
-0.0577587 0.00303301  0
-0.0606738 0.00355586  0
-0.0639862 0.00412477  0
-0.0677228 0.00473862  0
-0.0719084 0.00539549  0
-0.0765651 0.00609258  0
-0.0817116 0.0068261  0
-0.0873622 0.00759118  0
-0.0935265 0.00838182  0
-0.100208 0.00919079  0
-0.107404 0.0100096  0
-0.115105 0.0108287  0
-0.123292 0.0116372  0
-0.13194 0.0124232  0
-0.141013 0.0131741  0
-0.150468 0.0138765  0
-0.160254 0.0145169  0
-0.170309 0.0150818  0
-0.180567 0.015558  0
-0.190953 0.0159335  0
-0.201388 0.0161975  0
-0.211788 0.0163412  0
-0.222068 0.016358  0
-0.232141 0.0162441  0
-0.241925 0.0159981  0
-0.251336 0.0156217  0
-0.260298 0.0151193  0
-0.268741 0.0144973  0
-0.276599 0.0137642  0
-0.283818 0.0129296  0
-0.290347 0.012004  0
-0.296145 0.0109976  0
-0.301178 0.00992073  0
-0.305418 0.00878309  0
-0.308844 0.00759379  0
-0.311439 0.00636073  0
-0.31319 0.0050913  0
-0.314092 0.00379336  0
-0.31414 0.00247353  0
-0.313336 0.00113928  0
-0.311679 -0.000205573  0
-0.30916 -0.00155901  0
-0.305784 -0.00292013  0
-0.301577 -0.00428024  0
-0.296566 -0.00562807  0
-0.290772 -0.00695702  0
-0.28422 -0.00826096  0
-0.276935 -0.00953356  0
-0.268948 -0.0107687  0
-0.260288 -0.0119603  0
-0.25099 -0.0131022  0
-0.24109 -0.0141884  0
-0.230627 -0.0152126  0
-0.219643 -0.0161697  0
-0.20818 -0.0170547  0
-0.196285 -0.0178627  0
-0.184005 -0.0185881  0
-0.171389 -0.0192271  0
-0.158488 -0.0197776  0
-0.145353 -0.0202376  0
-0.132035 -0.0206021  0
-0.11859 -0.0208694  0
-0.10507 -0.0210422  0
-0.0915267 -0.0211219  0
-0.0780123 -0.0211009  0
-0.0645838 -0.0209836  0
-0.0512867 -0.0207867  0
-0.0381683 -0.0204905  0
-0.025284 -0.0201099  0
-0.0126734 -0.0196603  0
-0.000376018 -0.0191198  0
0.0115329 -0.0184981  0
0.0229974 -0.0178054  0
0.0340066 -0.0170496  0
0.044544 -0.0162538  0
0.0545879 -0.0154256  0
0.0641196 -0.0145719  0
0.0731237 -0.0136984  0
0.0815881 -0.012811  0
0.0895045 -0.0119155  0
0.0968683 -0.011018  0
0.103678 -0.0101245  0
0.109936 -0.00924069  0
0.115648 -0.00837191  0
0.120823 -0.00752317  0
0.125471 -0.00669901  0
0.129608 -0.00590348  0
0.133251 -0.0051401  0
0.136418 -0.00441195  0
0.13913 -0.00372161  0
0.141412 -0.00307127  0
0.143286 -0.00246279  0
0.144779 -0.00189776  0
0.145917 -0.00137757  0
0.14673 -0.000903455  0
0.147246 -0.000476512  0
0.147496 -9.75708e-05  0
0.14751 0.000233803  0
0.147322 0.000516773  0
0.14696 0.000753146  0
0.146453 0.000945735  0
0.145828 0.00109765  0
0.14511 0.00121201  0
0.144323 0.00129193  0
0.143486 0.00134049  0
0.142621 0.00136077  0
0.141745 0.00135585  0
0.140872 0.00132881  0
0.140016 0.00128269  0
0.139189 0.00122049  0
0.138399 0.00114513  0
0.137655 0.00105942  0
0.136961 0.000966032  0
0.136321 0.000867501  0
0.135739 0.000766188  0
0.135213 0.000664268  0
0.134745 0.000563721  0
0.134331 0.000466322  0
0.133969 0.00037363  0
0.133656 0.000286998  0
0.133386 0.000207574  0
0.133154 0.000136248  0
0.132954 7.39282e-05  0
0.13278 2.15576e-05  0
0.132627 -2.05513e-05  0
0.132487 -5.22176e-05  0
0.132355 -7.33461e-05  0
0.132223 -8.39316e-05  0
0.132086 -8.40657e-05  0
0.131935 -7.39217e-05  0
0.131765 -5.37496e-05  0
0.13157 -2.38625e-05  0
0.131344 1.53756e-05  0
0.13108 6.35638e-05  0
0.130773 0.000120283  0
0.130417 0.000185126  0
0.130009 0.000257786  0
0.129544 0.000337714  0
0.129017 0.000424365  0
0.128426 0.00051721  0
0.127767 0.000615719  0
0.127038 0.000719301  0
0.126235 0.00082742  0
0.125357 0.000939537  0
0.124403 0.00105509  0
0.12337 0.0011735  0
0.122258 0.00129416  0
0.121067 0.00141647  0
0.119797 0.00153977  0
0.118449 0.00166343  0
0.117022 0.00178675  0
0.11552 0.00190905  0
0.113943 0.0020296  0
0.112295 0.00214768  0
0.110578 0.00226252  0
0.108796 0.00237337  0
0.106952 0.00247944  0
0.105052 0.00257995  0
0.103099 0.00267412  0
0.1011 0.00276117  0
0.0990599 0.00284031  0
0.0969853 0.00291081  0
0.0948827 0.00297193  0
0.0927593 0.00302297  0
0.0906222 0.00306326  0
0.0884794 0.0030922  0
0.0863385 0.00310923  0
0.0842078 0.00311385  0
0.0820955 0.00310564  0
0.08001 0.00308426  0
0.0779597 0.00304945  0
0.075953 0.00300105  0
0.0739981 0.00293899  0
0.0721032 0.00286332  0
0.0702763 0.00277416  0
0.0685248 0.00267178  0
0.0668563 0.00255652  0
0.0652775 0.00242883  0
0.0637949 0.00228923  0
0.0624147 0.00213833  0
0.0611424 0.00197675  0
0.0599829 0.00180512  0
0.058941 0.001624  0
0.0580207 0.00143394  0
0.0572256 0.00123586  0
0.0565585 0.00103232  0
0.0560198 0.00083108  0
0.0556041 0.000652286  0
0.0552883 0.000539051  0
0 0  0
0 0  0
0 0  0
0 0  0
0 0  0
0 0  0
0 0  0
0 0  0
0 0  0
0 0  0
0 0  0
0 0  0
0 0  0
0 0  0
0 0  0
0 0  0
0 0  0
0 0  0
0 0  0
0 0  0
0 0  0
0 0  0
0 0  0
0 0  0
0 0  0
0 0  0
0 0  0
0 0  0
0 0  0
0 0  0
0 0  0
0 0  0
0 0  0
0 0  0
0 0  0
0 0  0
0 0  0
0 0  0
0 0  0
0 0  0
0 0  0
0 0  0
0 0  0
0 0  0
0 0  0
0 0  0
0 0  0
0 0  0
0 0  0
0 0  0
0 0  0
0 0  0
0 0  0
0 0  0
0 0  0
0 0  0
0 0  0
0 0  0
0 0  0
0 0  0
0 0  0
0 0  0
0 0  0
0 0  0
0 0  0
0 0  0
0 0  0
0 0  0
0 0  0
0 0  0
0 0  0
0 0  0
0 0  0
0 0  0
0 0  0
0 0  0
0 0  0
0 0  0
0 0  0
0 0  0
0 0  0
0 0  0
0 0  0
0 0  0
0 0  0
0 0  0
0 0  0
0 0  0
0 0  0
0 0  0
0 0  0
0 0  0
0 0  0
0 0  0
0 0  0
0 0  0
0 0  0
0 0  0
0 0  0
0 0  0
0 0  0
0 0  0
0 0  0
0 0  0
0 0  0
0 0  0
0 0  0
0 0  0
0 0  0
0 0  0
0 0  0
0 0  0
0 0  0
0 0  0
0 0  0
0 0  0
0 0  0
0 0  0
0 0  0
0 0  0
0 0  0
0 0  0
0 0  0
0 0  0
0 0  0
0 0  0
0 0  0
0 0  0
0 0  0
0 0  0
0 0  0
0 0  0
0 0  0
0 0  0
0 0  0
0 0  0
0 0  0
0 0  0
0 0  0
0 0  0
0 0  0
0 0  0
0 0  0
0 0  0
0 0  0
0 0  0
0 0  0
0 0  0
0 0  0
0 0  0
0 0  0
0 0  0
0 0  0
0 0  0
0 0  0
0 0  0
0 0  0
0 0  0
0 0  0
0 0  0
0 0  0
0 0  0
0 0  0
0 0  0
0 0  0
0 0  0
0 0  0
0 0  0
0 0  0
0 0  0
0 0  0
0 0  0
0 0  0
0 0  0
0 0  0
0 0  0
0 0  0
0 0  0
0 0  0
0 0  0
0 0  0
0 0  0
0 0  0
0 0  0
0 0  0
0 0  0
0 0  0
0 0  0
0 0  0
0 0  0
0 0  0
0 0  0
0 0  0
0 0  0
0 0  0
0 0  0
0 0  0
0 0  0
0 0  0
0 0  0
0 0  0
0 0  0
0 0  0
0 0  0
0 0  0
0 0  0
0 0  0
0 0  0
0 0  0
0 0  0
0 0  0
0 0  0
0 0  0
0 0  0
0 0  0
0 0  0
0 0  0
0 0  0
0 0  0
0 0  0
0 0  0
0 0  0
0 0  0
0 0  0
0 0  0
0 0  0
0 0  0
0 0  0
0 0  0
0 0  0
0 0  0
0 0  0
0 0  0
0 0  0
0 0  0
0 0  0
0 0  0
0 0  0
0 0  0
0 0  0
0 0  0
0 0  0
0 0  0
0 0  0
0 0  0
0 0  0
0 0  0
0 0  0
0 0  0
0 -7.15198e-05  0
-7.84258e-05 7.16026e-05  0
-0.000405691 0.000599595  0
-0.00107162 0.00126248  0
-0.00205874 0.0019143  0
-0.00332834 0.00247996  0
-0.0048302 0.0029301  0
-0.00651126 0.00326271  0
-0.00832159 0.00349036  0
-0.0102179 0.00363179  0
-0.012165 0.00370673  0
-0.0141355 0.00373302  0
-0.0161093 0.00372538  0
-0.0180719 0.00369507  0
-0.0200135 0.0036502  0
-0.0219274 0.00359624  0
-0.0238092 0.00353663  0
-0.0256561 0.00347333  0
-0.0274661 0.00340729  0
-0.0292378 0.00333879  0
-0.0309698 0.00326773  0
-0.0326611 0.00319382  0
-0.0343103 0.00311663  0
-0.0359163 0.00303573  0
-0.0374775 0.00295068  0
-0.0389926 0.00286111  0
-0.0404598 0.00276666  0
-0.0418776 0.00266707  0
-0.0432442 0.00256213  0
-0.044558 0.00245174  0
-0.0458175 0.0023359  0
-0.0470211 0.00221473  0
-0.0481675 0.00208848  0
-0.0492559 0.0019576  0
-0.0502856 0.00182271  0
-0.0512564 0.00168464  0
-0.0521687 0.00154446  0
-0.0530237 0.0014035  0
-0.0538233 0.00126336  0
-0.0545704 0.00112591  0
-0.0552687 0.000993344  0
-0.0559235 0.000868128  0
-0.056541 0.000753035  0
-0.0571293 0.000651122  0
-0.0576975 0.000565725  0
-0.058257 0.000500415  0
-0.0588204 0.000459067  0
-0.0594025 0.000445685  0
-0.0600199 0.000464457  0
-0.060691 0.000519707  0
-0.0614362 0.000615836  0
-0.0622777 0.000757263  0
-0.0632397 0.000948358  0
-0.0643481 0.00119338  0
-0.0656308 0.00149658  0
-0.0671168 0.00186186  0
-0.0688368 0.00229287  0
-0.0708224 0.00279291  0
-0.073106 0.00336486  0
-0.0757206 0.00401098  0
-0.0786989 0.00473288  0
-0.0820733 0.00553138  0
-0.0858752 0.00640639  0
-0.0901344 0.00735674  0
-0.0948781 0.00838006  0
-0.100131 0.00947262  0
-0.105913 0.0106292  0
-0.11224 0.0118428  0
-0.119123 0.0131048  0
-0.126564 0.0144047  0
-0.134561 0.0157299  0
-0.143103 0.0170659  0
-0.152169 0.0183966  0
-0.16173 0.0197036  0
-0.171748 0.0209676  0
-0.182176 0.0221676  0
-0.192955 0.0232821  0
-0.20402 0.024289  0
-0.215297 0.0251667  0
-0.226704 0.0258943  0
-0.238153 0.0264526  0
-0.249553 0.0268245  0
-0.260808 0.0269961  0
-0.271822 0.0269567  0
-0.2825 0.0267001  0
-0.292748 0.0262242  0
-0.302479 0.0255319  0
-0.31161 0.0246301  0
-0.320066 0.0235299  0
-0.327783 0.0222457  0
-0.334703 0.0207944  0
-0.340779 0.0191941  0
-0.345974 0.0174635  0
-0.350259 0.0156207  0
-0.353611 0.0136829  0
-0.356016 0.0116663  0
-0.357465 0.00958584  0
-0.357956 0.00745339  0
-0.357486 0.0052803  0
-0.35606 0.00307968  0
-0.353683 0.000858905  0
-0.350364 -0.00136917  0
-0.34612 -0.00359805  0
-0.340984 -0.00582193  0
-0.334991 -0.0080258  0
-0.328171 -0.0102008  0
-0.320552 -0.0123386  0
-0.312161 -0.0144315  0
-0.303028 -0.0164711  0
-0.293187 -0.018449  0
-0.282671 -0.0203568  0
-0.271516 -0.0221867  0
-0.25976 -0.0239304  0
-0.247441 -0.0255789  0
-0.234603 -0.0271234  0
-0.221289 -0.0285568  0
-0.207546 -0.0298734  0
-0.193418 -0.0310672  0
-0.178953 -0.0321285  0
-0.164204 -0.0330514  0
-0.149223 -0.0338349  0
-0.134059 -0.0344803  0
-0.11876 -0.0349758  0
-0.103384 -0.0353171  0
-0.0879868 -0.0355108  0
-0.0726139 -0.0355696  0
-0.0573138 -0.0354677  0
-0.0421496 -0.0352094  0
-0.0271663 -0.0348412  0
-0.0124007 -0.0343199  0
0.00208877 -0.0336543  0
0.0162145 -0.0328522  0
0.0299142 -0.031925  0
0.0431769 -0.0308645  0
0.0559845 -0.0297111  0
0.0683082 -0.028477  0
0.0801224 -0.0271779  0
0.0914018 -0.0258248  0
0.102125 -0.0244275  0
0.112274 -0.0229956  0
0.121834 -0.0215386  0
0.130796 -0.0200661  0
0.139152 -0.0185878  0
0.146901 -0.0171131  0
0.154042 -0.0156512  0
0.160579 -0.0142108  0
0.166521 -0.0128001  0
0.171876 -0.0114265  0
0.17666 -0.0100969  0
0.180888 -0.00881735  0
0.18458 -0.00759316  0
0.187756 -0.00642899  0
0.19044 -0.00532886  0
0.192657 -0.00429628  0
0.194434 -0.00333434  0
0.1958 -0.00244582  0
0.196785 -0.00163325  0
0.197421 -0.0008989  0
0.197742 -0.000244966  0
0.197782 0.00032576  0
0.19758 0.000815259  0
0.19717 0.00122718  0
0.196582 0.00156597  0
0.195848 0.00183637  0
0.194996 0.0020433  0
0.194053 0.00219173  0
0.193043 0.00228675  0
0.191989 0.0023335  0
0.190912 0.00233724  0