# vtk DataFile Version 4.0
Nusif VTK output
ASCII
DATASET STRUCTURED_POINTS
DIMENSIONS 500 50 1
ORIGIN 0 0 0 
SPACING 0.03 0.03 1
POINT_DATA 25000 

VECTORS velocity double
0 0  0
0 0  0
0 0  0
0 0  0
0 0  0
0 0  0
0 0  0
0 0  0
0 0  0
0 0  0
0 0  0
0 0  0
0 0  0
0 0  0
0 0  0
0 0  0
0 0  0
0 0  0
0 0  0
0 0  0
0 0  0
0 0  0
0 0  0
0 0  0
0 0  0
0 0  0
0 0  0
0 0  0
0 0  0
0 0  0
0 0  0
0 0  0
0 0  0
0 0  0
0 0  0
0 0  0
0 0  0
0 0  0
0 0  0
0 0  0
0 0  0
0 0  0
0 0  0
0 0  0
0 0  0
0 0  0
0 0  0
0 0  0
0 0  0
0 0  0
0 0  0
0 0  0
0 0  0
0 0  0
0 0  0
0 0  0
0 0  0
0 0  0
0 0  0
0 0  0
0 0  0
0 0  0
0 0  0
0 0  0
0 0  0
0 0  0
0 0  0
0 0  0
0 0  0
0 0  0
0 0  0
0 0  0
0 0  0
0 0  0
0 0  0
0 0  0
0 0  0
0 0  0
0 0  0
0 0  0
0 0  0
0 0  0
0 0  0
0 0  0
0 0  0
0 0  0
0 0  0
0 0  0
0 0  0
0 0  0
0 0  0
0 0  0
0 0  0
0 0  0
0 0  0
0 0  0
0 0  0
0 0  0
0 0  0
0 0  0
0 0  0
0 0  0
0 0  0
0 0  0
0 0  0
0 0  0
0 0  0
0 0  0
0 0  0
0 0  0
0 0  0
0 0  0
0 0  0
0 0  0
0 0  0
0 0  0
0 0  0
0 0  0
0 0  0
0 0  0
0 0  0
0 0  0
0 0  0
0 0  0
0 0  0
0 0  0
0 0  0
0 0  0
0 0  0
0 0  0
0 0  0
0 0  0
0 0  0
0 0  0
0 0  0
0 0  0
0 0  0
0 0  0
0 0  0
0 0  0
0 0  0
0 0  0
0 0  0
0 0  0
0 0  0
0 0  0
0 0  0
0 0  0
0 0  0
0 0  0
0 0  0
0 0  0
0 0  0
0 0  0
0 0  0
0 0  0
0 0  0
0 0  0
0 0  0
0 0  0
0 0  0
0 0  0
0 0  0
0 0  0
0 0  0
0 0  0
0 0  0
0 0  0
0 0  0
0 0  0
0 0  0
0 0  0
0 0  0
0 0  0
0 0  0
0 0  0
0 0  0
0 0  0
0 0  0
0 0  0
0 0  0
0 0  0
0 0  0
0 0  0
0 0  0
0 0  0
0 0  0
0 0  0
0 0  0
0 0  0
0 0  0
0 0  0
0 0  0
0 0  0
0 0  0
0 0  0
0 0  0
0 0  0
0 0  0
0 0  0
0 0  0
0 0  0
0 0  0
0 0  0
0 0  0
0 0  0
0 0  0
0 0  0
0 0  0
0 0  0
0 0  0
0 0  0
0 0  0
0 0  0
0 0  0
0 0  0
0 0  0
0 0  0
0 0  0
0 0  0
0 0  0
0 0  0
0 0  0
0 0  0
0 0  0
0 0  0
0 0  0
0 0  0
0 0  0
0 0  0
0 0  0
0 0  0
0 0  0
0 0  0
0 0  0
0 0  0
0 0  0
0 0  0
0 0  0
0 0  0
0 0  0
0 0  0
0 0  0
0 0  0
0 0  0
0 0  0
0 0  0
0 0  0
0 0  0
0 4.71167e-05  0
4.70974e-05 -4.71209e-05  0
8.87494e-05 5.43248e-06  0
-1.54678e-05 9.87589e-05  0
-0.000304137 0.000189884  0
-0.000758479 0.000264432  0
-0.00134273 0.000319789  0
-0.00202037 0.000357835  0
-0.00276011 0.000381871  0
-0.00353733 0.000395325  0
-0.0043339 0.000401225  0
-0.00513718 0.000402024  0
-0.00593881 0.000399585  0
-0.00673367 0.000395252  0
-0.00751889 0.00038994  0
-0.0082931 0.000384238  0
-0.00905586 0.000378495  0
-0.00980727 0.000372897  0
-0.0105477 0.000367519  0
-0.0112776 0.000362373  0
-0.0119975 0.000357431  0
-0.0127076 0.000352646  0
-0.0134082 0.000347964  0
-0.0140995 0.000343329  0
-0.0147816 0.000338684  0
-0.0154542 0.000333975  0
-0.0161174 0.000329149  0
-0.0167707 0.000324157  0
-0.0174139 0.000318948  0
-0.0180463 0.000313473  0
-0.0186675 0.000307683  0
-0.0192767 0.000301532  0
-0.0198733 0.000294971  0
-0.0204562 0.000287958  0
-0.0210246 0.00028045  0
-0.0215775 0.000272407  0
-0.0221138 0.000263796  0
-0.0226322 0.000254584  0
-0.0231315 0.000244748  0
-0.0236106 0.000234265  0
-0.024068 0.000223123  0
-0.0245024 0.000211312  0
-0.0249126 0.000198831  0
-0.0252971 0.000185686  0
-0.0256548 0.000171889  0
-0.0259841 0.000157458  0
-0.026284 0.000142418  0
-0.0265533 0.000126802  0
-0.0267907 0.000110646  0
-0.0269954 9.39918e-05  0
-0.0271663 7.68902e-05  0
-0.0273026 5.93974e-05  0
-0.0274036 4.15775e-05  0
-0.0274687 2.3506e-05  0
-0.0274976 5.27536e-06  0
-0.0274898 -1.3084e-05  0
-0.027445 -3.17063e-05  0
-0.0273628 -5.04906e-05  0
-0.027243 -6.9346e-05  0
-0.0270855 -8.82083e-05  0
-0.0268903 -0.000107031  0
-0.0266575 -0.000125775  0
-0.0263874 -0.000144405  0
-0.0260801 -0.000162887  0
-0.025736 -0.000181183  0
-0.0253556 -0.000199255  0
-0.0249393 -0.000217063  0
-0.0244877 -0.000234566  0
-0.0240015 -0.000251716  0
-0.0234813 -0.00026846  0
-0.0229282 -0.000284742  0
-0.0223429 -0.000300505  0
-0.0217268 -0.000315693  0
-0.0210809 -0.000330252  0
-0.0204065 -0.000344121  0
-0.0197052 -0.000357237  0
-0.0189784 -0.000369544  0
-0.0182279 -0.000380997  0
-0.0174554 -0.00039155  0
-0.0166627 -0.00040115  0
-0.0158518 -0.000409746  0
-0.0150248 -0.000417307  0
-0.0141837 -0.000423811  0
-0.0133307 -0.000429226  0
-0.012468 -0.000433515  0
-0.0115978 -0.000436683  0
-0.0107224 -0.000438755  0
-0.00984398 -0.000439717  0
-0.0089647 -0.000439588  0
-0.00808667 -0.000438473  0
-0.00721178 -0.000436441  0
-0.00634181 -0.000433562  0
-0.00547818 -0.000430089  0
-0.00462197 -0.000426151  0
-0.00377391 -0.000421937  0
-0.00293401 -0.000417997  0
-0.00210168 -0.000414352  0
-0.00127576 -0.000411605  0
-0.00045412 -0.000410059  0
0.000366046 -0.000410135  0
0.0011884 -0.000412242  0
0.00201733 -0.000416717  0
0.00285773 -0.000423716  0
0.00371462 -0.000433203  0
0.00459272 -0.000444928  0
0.00549603 -0.000458401  0
0.00642729 -0.000472891  0
0.00738761 -0.000487458  0
0.00837605 -0.000501011  0
0.00938942 -0.000512393  0
0.0104223 -0.000520482  0
0.011467 -0.000524298  0
0.0125144 -0.000523093  0
0.0135539 -0.000516417  0
0.0145744 -0.000504153  0
0.015565 -0.000486513  0
0.0165155 -0.000464002  0
0.0174169 -0.000437358  0
0.0182617 -0.000407478  0
0.0190445 -0.000375342  0
0.0197617 -0.00034194  0
0.0204118 -0.000308211  0
0.020995 -0.000275001  0
0.021513 -0.000243032  0
0.0219689 -0.000212884  0
0.0223668 -0.000184999  0
0.0227114 -0.000159677  0
0.0230082 -0.000137098  0
0.0232626 -0.000117331  0
0.0234802 -0.000100352  0
0.0236666 -8.6064e-05  0
0.0238269 -7.43115e-05  0
0.0239661 -6.48952e-05  0
0.0240886 -5.75857e-05  0
0.0241983 -5.2135e-05  0
0.0242986 -4.82859e-05  0
0.0243927 -4.57798e-05  0
0.0244828 -4.4364e-05  0
0.0245709 -4.37962e-05  0
0.0246585 -4.38496e-05  0
0.0247467 -4.43152e-05  0
0.024836 -4.50047e-05  0
0.0249267 -4.57519e-05  0
0.0250188 -4.64135e-05  0
0.0251121 -4.68696e-05  0
0.0252059 -4.70232e-05  0
0.0252997 -4.67996e-05  0
0.0253927 -4.61457e-05  0
0.0254838 -4.50288e-05  0
0.0255722 -4.34351e-05  0
0.025657 -4.13689e-05  0
0.0257372 -3.88508e-05  0
0.0258119 -3.59166e-05  0
0.0258804 -3.26154e-05  0
0.025942 -2.90078e-05  0
0.0259962 -2.51635e-05  0
0.0260425 -2.11589e-05  0
0.0260807 -1.70743e-05  0
0.0261107 -1.29905e-05  0
0.0261326 -8.98497e-06  0
0.0261467 -5.12674e-06  0
0.0261533 -1.45031e-06  0
0.0261526 2.06264e-06  0
0.0261451 5.45426e-06  0
0.0261309 8.70193e-06  0
0.0261104 1.17807e-05  0
0.0260839 1.46707e-05  0
0.0260518 1.73576e-05  0
0.0260146 1.98312e-05  0
0.0259727 2.2086e-05  0
0.0259264 2.41198e-05  0
0.0258763 2.59341e-05  0
0.0258228 2.75336e-05  0
0.0257663 2.89254e-05  0
0.0257073 3.0119e-05  0
0.025646 3.11259e-05  0
0.0255829 3.19589e-05  0
0.0255183 3.26319e-05  0
0.0254524 3.31594e-05  0
0.0253857 3.35564e-05  0
0.0253183 3.38381e-05  0
0.0252504 3.40191e-05  0
0.0251822 3.4114e-05  0
0.0251139 3.41365e-05  0
0.0250457 3.40996e-05  0
0.0249775 3.40153e-05  0
0.0249096 3.38947e-05  0
0.0248419 3.37477e-05  0
0.0247745 3.35832e-05  0
0.0247075 3.34088e-05  0
0.0246408 3.32309e-05  0
0.0245745 3.30549e-05  0
0.0245085 3.28848e-05  0
0.0244429 3.27239e-05  0
0.0243776 3.25742e-05  0
0.0243125 3.24367e-05  0
0.0242477 3.23117e-05  0
0.0241832 3.21987e-05  0
0.0241189 3.20962e-05  0
0.0240547 3.20022e-05  0
0.0239908 3.19143e-05  0
0.023927 3.18295e-05  0
0.0238634 3.17444e-05  0
0.0238 3.16553e-05  0
0.0237367 3.15584e-05  0
0.0236737 3.14498e-05  0
0.0236109 3.13254e-05  0
0.0235483 3.11814e-05  0
0.0234861 3.10138e-05  0
0.0234242 3.08192e-05  0
0.0233628 3.05941e-05  0
0.0233018 3.03355e-05  0
0.0232414 3.00407e-05  0
0.0231816 2.97074e-05  0
0.0231226 2.93338e-05  0
0.0230643 2.89185e-05  0
0.0230069 2.84607e-05  0
0.0229504 2.796e-05  0
0.022895 2.74164e-05  0
0.0228407 2.68308e-05  0
0.0227877 2.62042e-05  0
0.0227359 2.55383e-05  0
0.0226855 2.48352e-05  0
0.0226365 2.40975e-05  0
0.022589 2.33284e-05  0
0.0225432 2.25312e-05  0
0.0224989 2.17099e-05  0
0.0224563 2.08689e-05  0
0.0224153 2.00131e-05  0
0.0223762 1.91476e-05  0
0.0223387 1.82782e-05  0
0.022303 1.74107e-05  0
0.022269 1.65515e-05  0
0.0222367 1.57071e-05  0
0.0222061 1.48841e-05  0
0.0221771 1.40889e-05  0
0.0221496 1.33275e-05  0
0.0221236 1.26054e-05  0
0.0220991 1.19268e-05  0
0.0220758 1.12943e-05  0
0.0220538 1.07081e-05  0
0.0220329 1.01647e-05  0
0.022013 9.65566e-06  0
0.0219942 9.16574e-06  0
0.0219763 8.67064e-06  0
0.0219594 8.13655e-06  0
0.0219438 7.52394e-06  0
0.0219294 6.80067e-06  0
0.0219166 5.96262e-06  0
0.0219056 5.00182e-06  0
0.0218971 3.45793e-06  0
0 0  0
0 0  0
0 0  0
0 0  0
0 0  0
0 0  0
0 0  0
0 0  0
0 0  0
0 0  0
0 0  0
0 0  0
0 0  0
0 0  0
0 0  0
0 0  0
0 0  0
0 0  0
0 0  0
0 0  0
0 0  0
0 0  0
0 0  0
0 0  0
0 0  0
0 0  0
0 0  0
0 0  0
0 0  0
0 0  0
0 0  0
0 0  0
0 0  0
0 0  0
0 0  0
0 0  0
0 0  0
0 0  0
0 0  0
0 0  0
0 0  0
0 0  0
0 0  0
0 0  0
0 0  0
0 0  0
0 0  0
0 0  0
0 0  0
0 0  0
0 0  0
0 0  0
0 0  0
0 0  0
0 0  0
0 0  0
0 0  0
0 0  0
0 0  0
0 0  0
0 0  0
0 0  0
0 0  0
0 0  0
0 0  0
0 0  0
0 0  0
0 0  0
0 0  0
0 0  0
0 0  0
0 0  0
0 0  0
0 0  0
0 0  0
0 0  0
0 0  0
0 0  0
0 0  0
0 0  0
0 0  0
0 0  0
0 0  0
0 0  0
0 0  0
0 0  0
0 0  0
0 0  0
0 0  0
0 0  0
0 0  0
0 0  0
0 0  0
0 0  0
0 0  0
0 0  0
0 0  0
0 0  0
0 0  0
0 0  0
0 0  0
0 0  0
0 0  0
0 0  0
0 0  0
0 0  0
0 0  0
0 0  0
0 0  0
0 0  0
0 0  0
0 0  0
0 0  0
0 0  0
0 0  0
0 0  0
0 0  0
0 0  0
0 0  0
0 0  0
0 0  0
0 0  0
0 0  0
0 0  0
0 0  0
0 0  0
0 0  0
0 0  0
0 0  0
0 0  0
0 0  0
0 0  0
0 0  0
0 0  0
0 0  0
0 0  0
0 0  0
0 0  0
0 0  0
0 0  0
0 0  0
0 0  0
0 0  0
0 0  0
0 0  0
0 0  0
0 0  0
0 0  0
0 0  0
0 0  0
0 0  0
0 0  0
0 0  0
0 0  0
0 0  0
0 0  0
0 0  0
0 0  0
0 0  0
0 0  0
0 0  0
0 0  0
0 0  0
0 0  0
0 0  0
0 0  0
0 0  0
0 0  0
0 0  0
0 0  0
0 0  0
0 0  0
0 0  0
0 0  0
0 0  0
0 0  0
0 0  0
0 0  0
0 0  0
0 0  0
0 0  0
0 0  0
0 0  0
0 0  0
0 0  0
0 0  0
0 0  0
0 0  0
0 0  0
0 0  0
0 0  0
0 0  0
0 0  0
0 0  0
0 0  0
0 0  0
0 0  0
0 0  0
0 0  0
0 0  0
0 0  0
0 0  0
0 0  0
0 0  0
0 0  0
0 0  0
0 0  0
0 0  0
0 0  0
0 0  0
0 0  0
0 0  0
0 0  0
0 0  0
0 0  0
0 0  0
0 0  0
0 0  0
0 0  0
0 0  0
0 0  0
0 0  0
0 0  0
0 0  0
0 0  0
0 0  0
0 0  0
0 0  0
0 0  0
0 0  0
0 0  0
0 0  0
0 0  0
0 0  0
0 0  0
0 0  0
0 0  0
0 0  0
0 0  0
0 0  0
0 0  0
0 0  0
0 0  0
0 0  0
0 0  0
0 0  0
0 0  0
0 0  0
0 0  0
0 8.89833e-05  0
-5.25337e-06 -8.90014e-05  0
-0.000171044 0.0001714  0
-0.0006965 0.000562434  0
-0.00162695 0.000945295  0
-0.00292965 0.00126603  0
-0.0045382 0.00151095  0
-0.00637829 0.00168437  0
-0.00838094 0.00179769  0
-0.0104883 0.00186402  0
-0.0126548 0.00189565  0
-0.0148469 0.00190294  0
-0.0170407 0.00189407  0
-0.0192203 0.00187513  0
-0.0213754 0.00185044  0
-0.0235004 0.00182288  0
-0.0255921 0.00179428  0
-0.0276493 0.00176568  0
-0.0296718 0.00173762  0
-0.0316599 0.00171029  0
-0.0336142 0.00168367  0
-0.0355354 0.00165764  0
-0.0374238 0.00163199  0
-0.0392797 0.0016065  0
-0.0411031 0.00158094  0
-0.0428938 0.00155507  0
-0.0446513 0.00152866  0
-0.0463748 0.00150147  0
-0.0480634 0.00147327  0
-0.0497156 0.00144384  0
-0.0513301 0.00141295  0
-0.052905 0.0013804  0
-0.0544384 0.00134597  0
-0.055928 0.00130947  0
-0.0573714 0.00127071  0
-0.0587659 0.00122953  0
-0.0601088 0.00118577  0
-0.0613971 0.00113932  0
-0.0626279 0.00109007  0
-0.0637979 0.00103795  0
-0.064904 0.000982914  0
-0.065943 0.000924934  0
-0.0669116 0.000864028  0
-0.0678069 0.000800235  0
-0.0686256 0.000733628  0
-0.0693648 0.000664307  0
-0.0700218 0.000592398  0
-0.0705938 0.000518057  0
-0.0710785 0.000441461  0
-0.0714735 0.000362811  0
-0.0717768 0.000282342  0
-0.0719869 0.000200318  0
-0.0721023 0.000117041  0
-0.0721221 3.28649e-05  0
-0.0720453 -5.2086e-05  0
-0.0718709 -0.000137995  0
-0.0715977 -0.000224697  0
-0.0712256 -0.000311835  0
-0.0707544 -0.000399098  0
-0.0701841 -0.000486242  0
-0.0695153 -0.000573065  0
-0.0687485 -0.000659392  0
-0.0678844 -0.000745058  0
-0.066924 -0.000829891  0
-0.0658686 -0.000913712  0
-0.0647194 -0.000996339  0
-0.0634781 -0.00107758  0
-0.0621465 -0.00115725  0
-0.0607267 -0.00123513  0
-0.059221 -0.00131097  0
-0.0576319 -0.00138453  0
-0.0559623 -0.00145557  0
-0.0542153 -0.00152383  0
-0.0523943 -0.0015891  0
-0.0505028 -0.00165111  0
-0.0485448 -0.0017096  0
-0.0465245 -0.00176434  0
-0.0444461 -0.00181514  0
-0.0423142 -0.00186183  0
-0.0401336 -0.00190419  0
-0.0379092 -0.00194202  0
-0.0356461 -0.00197521  0
-0.0333494 -0.00200371  0
-0.0310244 -0.00202739  0
-0.0286763 -0.00204614  0
-0.0263106 -0.00206001  0
-0.0239322 -0.00206919  0
-0.0215463 -0.00207366  0
-0.0191577 -0.00207355  0
-0.0167709 -0.0020694  0
-0.0143898 -0.0020616  0
-0.0120177 -0.00205048  0
-0.00965728 -0.00203724  0
-0.00730998 -0.00202254  0
-0.00497645 -0.00200718  0
-0.0026557 -0.00199344  0
-0.000345136 -0.00198183  0
0.00195878 -0.00197401  0
0.00426135 -0.0019719  0
0.0065701 -0.00197724  0
0.00889402 -0.00199144  0
0.011243 -0.00201548  0
0.0136273 -0.00204966  0
0.0160566 -0.00209347  0
0.0185392 -0.00214543  0
0.0210811 -0.00220312  0
0.0236847 -0.00226311  0
0.0263483 -0.0023212  0
0.0290652 -0.00237265  0
0.0318237 -0.0024126  0
0.034607 -0.00243646  0
0.0373943 -0.0024404  0
0.0401615 -0.00242164  0
0.0428829 -0.00237874  0
0.0455322 -0.00231171  0
0.0480845 -0.00222193  0
0.0505173 -0.00211196  0
0.0528119 -0.00198532  0
0.0549536 -0.00184607  0
0.0569326 -0.00169856  0
0.0587437 -0.0015471  0
0.0603862 -0.00139571  0
0.0618634 -0.00124792  0
0.063182 -0.00110673  0
0.0643513 -0.000974481  0
0.065383 -0.000852895  0
0.0662896 -0.000743102  0
0.0670848 -0.000645696  0
0.0677825 -0.000560811  0
0.0683961 -0.000488199  0
0.0689388 -0.000427302  0
0.0694227 -0.000377329  0
0.0698589 -0.000337318  0
0.0702574 -0.000306195  0
0.070627 -0.000282821  0
0.070975 -0.000266034  0
0.0713076 -0.000254681  0
0.0716296 -0.000247648  0
0.0719448 -0.000243881  0
0.0722558 -0.000242401  0
0.0725642 -0.00024232  0
0.0728707 -0.000242846  0
0.0731753 -0.000243292  0
0.0734774 -0.000243074  0
0.0737756 -0.000241715  0
0.0740683 -0.00023884  0
0.0743537 -0.000234174  0
0.0746295 -0.000227535  0
0.0748935 -0.00021883  0
0.0751435 -0.000208047  0
0.0753772 -0.000195251  0
0.0755925 -0.000180574  0
0.0757878 -0.00016421  0
0.0759613 -0.000146406  0
0.0761119 -0.000127455  0
0.0762387 -0.000107683  0
0.0763412 -8.74366e-05  0
0.0764192 -6.70716e-05  0
0.0764731 -4.69376e-05  0
0.0765034 -2.73586e-05  0
0.0765112 -8.61329e-06  0
0.0764974 9.24549e-06  0
0.076463 2.63701e-05  0
0.0764089 4.27515e-05  0
0.0763362 5.83014e-05  0
0.0762459 7.29333e-05  0
0.0761393 8.6578e-05  0
0.0760176 9.91856e-05  0
0.075882 0.000110725  0
0.0757339 0.000121183  0
0.0755746 0.000130562  0
0.0754053 0.000138879  0
0.0752271 0.000146165  0
0.0750414 0.000152462  0
0.0748492 0.00015782  0
0.0746516 0.000162297  0
0.0744495 0.000165958  0
0.0742439 0.000168871  0
0.0740355 0.000171105  0
0.073825 0.000172732  0
0.0736133 0.000173823  0
0.0734007 0.000174446  0
0.0731879 0.000174669  0
0.0729751 0.000174555  0
0.0727629 0.000174163  0
0.0725514 0.000173548  0
0.0723409 0.00017276  0
0.0721316 0.000171843  0
0.0719236 0.000170837  0
0.0717169 0.000169775  0
0.0715117 0.000168687  0
0.071308 0.000167594  0
0.0711058 0.000166515  0
0.070905 0.000165462  0
0.0707057 0.000164445  0
0.0705078 0.000163466  0
0.0703113 0.000162526  0
0.0701162 0.000161621  0
0.0699224 0.000160744  0
0.0697299 0.000159886  0
0.0695389 0.000159035  0
0.0693491 0.000158178  0
0.0691608 0.000157298  0
0.0689739 0.000156379  0
0.0687885 0.000155404  0
0.0686048 0.000154356  0
0.0684228 0.000153218  0
0.0682426 0.000151972  0
0.0680644 0.000150603  0
0.0678884 0.000149096  0
0.0677146 0.000147437  0
0.0675434 0.000145614  0
0.067375 0.000143617  0
0.0672094 0.000141438  0
0.067047 0.000139072  0
0.0668879 0.000136514  0
0.0667323 0.000133763  0
0.0665806 0.000130821  0
0.0664328 0.00012769  0
0.0662893 0.000124378  0
0.06615 0.000120892  0
0.0660154 0.000117244  0
0.0658854 0.000113445  0
0.0657603 0.000109511  0
0.0656402 0.00010546  0
0.0655252 0.00010131  0
0.0654152 9.70833e-05  0
0.0653105 9.28023e-05  0
0.065211 8.84922e-05  0
0.0651166 8.41801e-05  0
0.0650274 7.98946e-05  0
0.0649432 7.56656e-05  0
0.0648639 7.15243e-05  0
0.0647894 6.75023e-05  0
0.0647195 6.36313e-05  0
0.0646538 5.99418e-05  0
0.0645922 5.64618e-05  0
0.0645344 5.32158e-05  0
0.06448 5.02223e-05  0
0.0644288 4.74915e-05  0
0.0643803 4.50216e-05  0
0.0643342 4.27947e-05  0
0.0642902 4.07698e-05  0
0.0642482 3.88758e-05  0
0.064208 3.70028e-05  0
0.0641696 3.49984e-05  0
0.0641333 3.26764e-05  0
0.0640994 2.98539e-05  0
0.0640686 2.6419e-05  0
0.0640418 2.23431e-05  0
0.0640192 1.71425e-05  0
0 0  0
0 0  0
0 0  0
0 0  0
0 0  0
0 0  0
0 0  0
0 0  0
0 0  0
0 0  0
0 0  0
0 0  0
0 0  0
0 0  0
0 0  0
0 0  0
0 0  0
0 0  0
0 0  0
0 0  0
0 0  0
0 0  0
0 0  0
0 0  0
0 0  0
0 0  0
0 0  0
0 0  0
0 0  0
0 0  0
0 0  0
0 0  0
0 0  0
0 0  0
0 0  0
0 0  0
0 0  0
0 0  0
0 0  0
0 0  0
0 0  0
0 0  0
0 0  0
0 0  0
0 0  0
0 0  0
0 0  0
0 0  0
0 0  0
0 0  0
0 0  0
0 0  0
0 0  0
0 0  0
0 0  0
0 0  0
0 0  0
0 0  0
0 0  0
0 0  0
0 0  0
0 0  0
0 0  0
0 0  0
0 0  0
0 0  0
0 0  0
0 0  0
0 0  0
0 0  0
0 0  0
0 0  0
0 0  0
0 0  0
0 0  0
0 0  0
0 0  0
0 0  0
0 0  0
0 0  0
0 0  0
0 0  0
0 0  0
0 0  0
0 0  0
0 0  0
0 0  0
0 0  0
0 0  0
0 0  0
0 0  0
0 0  0
0 0  0
0 0  0
0 0  0
0 0  0
0 0  0
0 0  0
0 0  0
0 0  0
0 0  0
0 0  0
0 0  0
0 0  0
0 0  0
0 0  0
0 0  0
0 0  0
0 0  0
0 0  0
0 0  0
0 0  0
0 0  0
0 0  0
0 0  0
0 0  0
0 0  0
0 0  0
0 0  0
0 0  0
0 0  0
0 0  0
0 0  0
0 0  0
0 0  0
0 0  0
0 0  0
0 0  0
0 0  0
0 0  0
0 0  0
0 0  0
0 0  0
0 0  0
0 0  0
0 0  0
0 0  0
0 0  0
0 0  0
0 0  0
0 0  0
0 0  0
0 0  0
0 0  0
0 0  0
0 0  0
0 0  0
0 0  0
0 0  0
0 0  0
0 0  0
0 0  0
0 0  0
0 0  0
0 0  0
0 0  0
0 0  0
0 0  0
0 0  0
0 0  0
0 0  0
0 0  0
0 0  0
0 0  0
0 0  0
0 0  0
0 0  0
0 0  0
0 0  0
0 0  0
0 0  0
0 0  0
0 0  0
0 0  0
0 0  0
0 0  0
0 0  0
0 0  0
0 0  0
0 0  0
0 0  0
0 0  0
0 0  0
0 0  0
0 0  0
0 0  0
0 0  0
0 0  0
0 0  0
0 0  0
0 0  0
0 0  0
0 0  0
0 0  0
0 0  0
0 0  0
0 0  0
0 0  0
0 0  0
0 0  0
0 0  0
0 0  0
0 0  0
0 0  0
0 0  0
0 0  0
0 0  0
0 0  0
0 0  0
0 0  0
0 0  0
0 0  0
0 0  0
0 0  0
0 0  0
0 0  0
0 0  0
0 0  0
0 0  0
0 0  0
0 0  0
0 0  0
0 0  0
0 0  0
0 0  0
0 0  0
0 0  0
0 0  0
0 0  0
0 0  0
0 0  0
0 0  0
0 0  0
0 0  0
0 0  0
0 0  0
0 0  0
0 0  0
0 0  0
0 0  0
0 0  0
0 0  0
0 0  0
0 0  0
0 0  0
0 0  0
0 0  0
0 0  0
0 0  0
0 -2.0837e-05  0
-0.000104571 2.07975e-05  0
-0.000588952 0.000711743  0
-0.0016421 0.00160068  0
-0.00326368 0.00245907  0
-0.00539498 0.00318624  0
-0.00794712 0.00375143  0
-0.0108229 0.00415971  0
-0.0139303 0.00443246  0
-0.0171901 0.0045964  0
-0.0205381 0.00467781  0
-0.0239249 0.00469967  0
-0.0273145 0.00468064  0
-0.0306814 0.00463503  0
-0.034009 0.00457327  0
-0.0372865 0.00450255  0
-0.0405078 0.00442763  0
-0.0436698 0.00435141  0
-0.0467709 0.0042755  0
-0.049811 0.00420065  0
-0.0527905 0.00412706  0
-0.0557097 0.00405458  0
-0.0585691 0.00398285  0
-0.0613689 0.00391141  0
-0.0641092 0.00383975  0
-0.0667896 0.00376732  0
-0.0694093 0.00369357  0
-0.0719672 0.00361796  0
-0.0744618 0.00353994  0
-0.0768914 0.00345897  0
-0.0792536 0.00337452  0
-0.0815459 0.00328608  0
-0.0837655 0.00319317  0
-0.085909 0.00309534  0
-0.0879729 0.00299215  0
-0.0899535 0.00288325  0
-0.0918469 0.0027683  0
-0.0936488 0.00264705  0
-0.095355 0.00251928  0
-0.0969612 0.00238486  0
-0.0984628 0.00224371  0
-0.0998555 0.00209583  0
-0.101135 0.00194128  0
-0.102297 0.0017802  0
-0.103337 0.0016128  0
-0.104252 0.00143933  0
-0.105038 0.00126014  0
-0.105691 0.00107561  0
-0.106209 0.000886199  0
-0.106588 0.000692391  0
-0.106827 0.000494764  0
-0.106923 0.000293971  0
-0.106875 9.07477e-05  0
-0.106682 -0.000114524  0
-0.106341 -0.000321937  0
-0.105853 -0.00053116  0
-0.105216 -0.000741437  0
-0.104431 -0.000952102  0
-0.103499 -0.00116256  0
-0.102419 -0.00137231  0
-0.101194 -0.00158089  0
-0.0998247 -0.0017879  0
-0.0983124 -0.00199294  0
-0.0966591 -0.00219559  0
-0.0948672 -0.00239543  0
-0.092939 -0.00259199  0
-0.0908774 -0.00278484  0
-0.0886854 -0.00297352  0
-0.0863666 -0.00315752  0
-0.0839246 -0.00333631  0
-0.0813636 -0.00350929  0
-0.0786881 -0.00367591  0
-0.075903 -0.00383564  0
-0.0730134 -0.00398798  0
-0.0700247 -0.00413236  0
-0.0669428 -0.00426821  0
-0.0637739 -0.00439501  0
-0.0605244 -0.0045124  0
-0.0572008 -0.00462003  0
-0.0538099 -0.00471745  0
-0.0503589 -0.00480422  0
-0.0468549 -0.00488014  0
-0.0433052 -0.00494521  0
-0.0397169 -0.00499922  0
-0.0360974 -0.00504191  0
-0.0324539 -0.00507347  0
-0.0287933 -0.00509461  0
-0.0251222 -0.00510525  0
-0.0214471 -0.00510571  0
-0.0177736 -0.00509755  0
-0.0141065 -0.00508174  0
-0.01045 -0.00505888  0
-0.00680724 -0.00503203  0
-0.00317938 -0.00500292  0
0.000433734 -0.00497346  0
0.00403261 -0.00494679  0
0.00762004 -0.00492649  0
0.0112026 -0.00491588  0
0.014789 -0.00491897  0
0.0183893 -0.00493926  0
0.0220154 -0.00497939  0
0.0256798 -0.00504094  0
0.0293953 -0.00512399  0
0.0331736 -0.00522676  0
0.0370242 -0.00534535  0
0.0409527 -0.00547369  0
0.0449601 -0.0056036  0
0.0490411 -0.00572527  0
0.0531835 -0.00582791  0
0.0573684 -0.00590064  0
0.0615701 -0.00593344  0
0.0657575 -0.00591818  0
0.0698957 -0.00584933  0
0.0739479 -0.00572453  0
0.0778773 -0.00554468  0
0.0816498 -0.00531378  0
0.0852353 -0.00503848  0
0.0886093 -0.00472733  0
0.0917536 -0.00439008  0
0.0946569 -0.00403688  0
0.0973147 -0.00367763  0
0.0997284 -0.00332141  0
0.101905 -0.00297614  0
0.103856 -0.00264833  0
0.105597 -0.00234302  0
0.107145 -0.00206378  0
0.108519 -0.00181281  0
0.109739 -0.00159111  0
0.110824 -0.00139866  0
0.111795 -0.00123458  0
0.112669 -0.00109731  0
0.113462 -0.000984817  0
0.114191 -0.000894707  0
0.114868 -0.000824362  0
0.115505 -0.000771053  0
0.116111 -0.000732033  0
0.116694 -0.000704608  0
0.117261 -0.000686201  0
0.117814 -0.000674397  0
0.118359 -0.000666977  0
0.118894 -0.000661947  0
0.119422 -0.000657556  0
0.119941 -0.000652298  0
0.12045 -0.000644923  0
0.120946 -0.000634429  0
0.121428 -0.000620055  0
0.121891 -0.000601272  0
0.122332 -0.000577767  0
0.122749 -0.000549425  0
0.123138 -0.00051632  0
0.123496 -0.000478691  0
0.12382 -0.000436929  0
0.124109 -0.000391557  0
0.124359 -0.000343209  0
0.124571 -0.000292613  0
0.124742 -0.00024056  0
0.124873 -0.000187876  0
0.124963 -0.000135395  0
0.125015 -8.39135e-05  0
0.125028 -3.41663e-05  0
0.125005 1.33045e-05  0
0.124948 5.87247e-05  0
0.124857 0.000102154  0
0.124734 0.000143431  0
0.124582 0.00018237  0
0.124403 0.000218808  0
0.124197 0.000252614  0
0.123969 0.0002837  0
0.123718 0.00031202  0
0.123449 0.000337566  0
0.123162 0.000360369  0
0.12286 0.000380489  0
0.122544 0.000398021  0
0.122218 0.000413079  0
0.121881 0.0004258  0
0.121537 0.000436338  0
0.121186 0.000444855  0
0.12083 0.000451524  0
0.12047 0.000456521  0
0.120108 0.000460021  0
0.119744 0.000462199  0
0.11938 0.000463224  0
0.119015 0.000463259  0
0.118651 0.000462457  0
0.118289 0.000460961  0
0.117928 0.000458902  0
0.11757 0.0004564  0
0.117214 0.00045356  0
0.11686 0.000450476  0
0.11651 0.000447228  0
0.116162 0.000443881  0
0.115818 0.00044049  0
0.115477 0.000437095  0
0.115139 0.000433726  0
0.114804 0.000430402  0
0.114472 0.00042713  0
0.114143 0.00042391  0
0.113818 0.000420732  0
0.113496 0.000417578  0
0.113177 0.000414426  0
0.112861 0.000411248  0
0.112549 0.000408009  0
0.11224 0.000404675  0
0.111935 0.000401208  0
0.111633 0.000397567  0
0.111335 0.000393714  0
0.111041 0.000389609  0
0.110752 0.000385216  0
0.110467 0.000380498  0
0.110187 0.000375424  0
0.109912 0.000369966  0
0.109642 0.0003641  0
0.109378 0.000357805  0
0.109119 0.000351068  0
0.108867 0.000343881  0
0.108622 0.000336241  0
0.108383 0.000328149  0
0.108152 0.000319616  0
0.107928 0.000310657  0
0.107712 0.000301291  0
0.107503 0.000291547  0
0.107303 0.000281455  0
0.107111 0.000271054  0
0.106928 0.000260386  0
0.106753 0.000249499  0
0.106587 0.000238446  0
0.106429 0.000227285  0
0.106281 0.000216077  0
0.10614 0.000204888  0
0.106009 0.000193789  0
0.105885 0.000182854  0
0.10577 0.00017216  0
0.105663 0.000161786  0
0.105563 0.000151811  0
0.105469 0.000142314  0
0.105383 0.000133371  0
0.105303 0.000125049  0
0.105228 0.000117407  0
0.105157 0.000110487  0
0.105092 0.000104312  0
0.105029 9.88747e-05  0
0.10497 9.41283e-05  0
0.104914 8.99742e-05  0
0.104859 8.62442e-05  0
0.104806 8.26835e-05  0
0.104755 7.89387e-05  0
0.104706 7.45665e-05  0
0.104658 6.90901e-05  0
0.104614 6.21406e-05  0
0.104574 5.37059e-05  0
0.104538 4.4452e-05  0
0 0  0
0 0  0
0 0  0
0 0  0
0 0  0
0 0  0
0 0  0
0 0  0
0 0  0
0 0  0
0 0  0
0 0  0
0 0  0
0 0  0
0 0  0
0 0  0
0 0  0
0 0  0
0 0  0
0 0  0
0 0  0
0 0  0
0 0  0
0 0  0
0 0  0
0 0  0
0 0  0
0 0  0
0 0  0
0 0  0
0 0  0
0 0  0
0 0  0
0 0  0
0 0  0
0 0  0
0 0  0
0 0  0
0 0  0
0 0  0
0 0  0
0 0  0
0 0  0
0 0  0
0 0  0
0 0  0
0 0  0
0 0  0
0 0  0
0 0  0
0 0  0
0 0  0
0 0  0
0 0  0
0 0  0
0 0  0
0 0  0
0 0  0
0 0  0
0 0  0
0 0  0
0 0  0
0 0  0
0 0  0
0 0  0
0 0  0
0 0  0
0 0  0
0 0  0
0 0  0
0 0  0
0 0  0
0 0  0
0 0  0
0 0  0
0 0  0
0 0  0
0 0  0
0 0  0
0 0  0
0 0  0
0 0  0
0 0  0
0 0  0
0 0  0
0 0  0
0 0  0
0 0  0
0 0  0
0 0  0
0 0  0
0 0  0
0 0  0
0 0  0
0 0  0
0 0  0
0 0  0
0 0  0
0 0  0
0 0  0
0 0  0
0 0  0
0 0  0
0 0  0
0 0  0
0 0  0
0 0  0
0 0  0
0 0  0
0 0  0
0 0  0
0 0  0
0 0  0
0 0  0
0 0  0
0 0  0
0 0  0
0 0  0
0 0  0
0 0  0
0 0  0
0 0  0
0 0  0
0 0  0
0 0  0
0 0  0
0 0  0
0 0  0
0 0  0
0 0  0
0 0  0
0 0  0
0 0  0
0 0  0
0 0  0
0 0  0
0 0  0
0 0  0
0 0  0
0 0  0
0 0  0
0 0  0
0 0  0
0 0  0
0 0  0
0 0  0
0 0  0
0 0  0
0 0  0
0 0  0
0 0  0
0 0  0
0 0  0
0 0  0
0 0  0
0 0  0
0 0  0
0 0  0
0 0  0
0 0  0
0 0  0
0 0  0
0 0  0
0 0  0
0 0  0
0 0  0
0 0  0
0 0  0
0 0  0
0 0  0
0 0  0
0 0  0
0 0  0
0 0  0
0 0  0
0 0  0
0 0  0
0 0  0
0 0  0
0 0  0
0 0  0
0 0  0
0 0  0
0 0  0
0 0  0
0 0  0
0 0  0
0 0  0
0 0  0
0 0  0
0 0  0
0 0  0
0 0  0
0 0  0
0 0  0
0 0  0
0 0  0
0 0  0
0 0  0
0 0  0
0 0  0
0 0  0
0 0  0
0 0  0
0 0  0
0 0  0
0 0  0
0 0  0
0 0  0
0 0  0
0 0  0
0 0  0
0 0  0
0 0  0
0 0  0
0 0  0
0 0  0
0 0  0
0 0  0
0 0  0
0 0  0
0 0  0
0 0  0
0 0  0
0 0  0
0 0  0
0 0  0
0 0  0
0 0  0
0 0  0
0 0  0
0 0  0
0 0  0
0 0  0
0 0  0
0 0  0
0 0  0
0 0  0
0 0  0
0 0  0
0 0  0
0 0  0
0 0  0
0 0  0
0 0  0
0 0  0
0 0  0
0 0  0
0 0  0
0 -0.000337483  0
-0.000212077 0.00033742  0
-0.0010425 0.00170989  0
-0.00265697 0.00327014  0
-0.00498257 0.00473679  0
-0.00791927 0.00597652  0
-0.011352 0.00694606  0
-0.0151642 0.00765294  0
-0.0192474 0.00812997  0
-0.0235083 0.00841952  0
-0.0278699 0.00856427  0
-0.0322723 0.00860245  0
-0.0366707 0.00856575  0
-0.0410328 0.00847895  0
-0.0453364 0.00836049  0
-0.0495669 0.00822345  0
-0.0537156 0.00807667  0
-0.0577771 0.00792579  0
-0.0617489 0.00777413  0
-0.0656302 0.00762343  0
-0.0694208 0.00747432  0
-0.0731211 0.0073268  0
-0.0767315 0.0071804  0
-0.0802522 0.00703442  0
-0.0836832 0.00688803  0
-0.0870241 0.00674029  0
-0.0902741 0.00659026  0
-0.0934319 0.00643695  0
-0.0964957 0.00627942  0
-0.0994634 0.0061167  0
-0.102332 0.00594787  0
-0.105099 0.00577203  0
-0.107761 0.00558834  0
-0.110313 0.00539602  0
-0.112752 0.00519436  0
-0.115073 0.00498273  0
-0.117272 0.00476062  0
-0.119343 0.0045276  0
-0.121281 0.00428338  0
-0.123082 0.00402776  0
-0.12474 0.00376068  0
-0.126251 0.00348219  0
-0.127609 0.00319245  0
-0.12881 0.00289178  0
-0.129849 0.00258058  0
-0.130721 0.00225938  0
-0.131424 0.00192881  0
-0.131954 0.00158961  0
-0.132306 0.00124258  0
-0.13248 0.000888647  0
-0.132471 0.000528839  0
-0.13228 0.000164349  0
-0.131904 -0.000204073  0
-0.131341 -0.000576103  0
-0.13059 -0.000951043  0
-0.129653 -0.00132767  0
-0.12853 -0.00170492  0
-0.127222 -0.00208181  0
-0.12573 -0.00245741  0
-0.124056 -0.00283089  0
-0.122201 -0.00320151  0
-0.12017 -0.00356858  0
-0.117963 -0.00393141  0
-0.115584 -0.00428928  0
-0.113036 -0.00464143  0
-0.110323 -0.00498707  0
-0.107449 -0.00532542  0
-0.104418 -0.00565573  0
-0.101235 -0.00597717  0
-0.0979053 -0.00628879  0
-0.0944335 -0.00658959  0
-0.090826 -0.00687863  0
-0.087089 -0.00715507  0
-0.083229 -0.00741813  0
-0.079253 -0.0076669  0
-0.0751682 -0.00790039  0
-0.0709822 -0.00811774  0
-0.066703 -0.00831845  0
-0.0623384 -0.00850213  0
-0.0578966 -0.00866798  0
-0.0533861 -0.00881525  0
-0.0488155 -0.00894366  0
-0.0441934 -0.00905355  0
-0.039528 -0.00914465  0
-0.0348277 -0.00921633  0
-0.0301012 -0.00926897  0
-0.0253563 -0.00930456  0
-0.0206001 -0.00932262  0
-0.0158402 -0.00932347  0
-0.0110831 -0.00931034  0
-0.00633398 -0.00928518  0
-0.00159682 -0.00924909  0
0.00312394 -0.00920538  0
0.0078246 -0.0091581  0
0.012505 -0.00911178  0
0.0171682 -0.00907052  0
0.0218191 -0.00904113  0
0.0264647 -0.00902944  0
0.0311143 -0.00904135  0
0.0357792 -0.00908216  0
0.0404726 -0.00915591  0
0.0452085 -0.00926479  0
0.0500014 -0.00940845  0
0.0548641 -0.00958339  0
0.0598073 -0.00978252  0
0.0648372 -0.00999501  0
0.0699541 -0.0102066  0
0.0751509 -0.0104001  0
0.0804123 -0.010557  0
0.0857145 -0.0106586  0
0.0910256 -0.0106882  0
0.0963068 -0.0106321  0
0.101515 -0.0104816  0
0.106604 -0.0102336  0
0.11153 -0.00989071  0
0.11625 -0.00946085  0
0.12073 -0.00895648  0
0.12494 -0.00839318  0
0.128859 -0.00778839  0
0.132477 -0.00715996  0
0.13579 -0.0065251  0
0.138802 -0.00589938  0
0.141523 -0.00529618  0
0.14397 -0.00472633  0
0.146162 -0.004198  0
0.148122 -0.00371682  0
0.149875 -0.00328604  0
0.151444 -0.00290685  0
0.152854 -0.00257871  0
0.154129 -0.00229966  0
0.155289 -0.00206665  0
0.156356 -0.00187582  0
0.157346 -0.00172279  0
0.158276 -0.00160284  0
0.159158 -0.00151111  0
0.160002 -0.00144275  0
0.160818 -0.00139308  0
0.161612 -0.00135761  0
0.162387 -0.00133221  0
0.163147 -0.00131309  0
0.163892 -0.00129689  0
0.164622 -0.00128069  0
0.165336 -0.001262  0
0.166031 -0.0012388  0
0.166703 -0.00120949  0
0.16735 -0.0011729  0
0.167967 -0.00112828  0
0.16855 -0.00107523  0
0.169095 -0.00101369  0
0.169598 -0.000943937  0
0.170055 -0.000866514  0
0.170464 -0.000782213  0
0.170821 -0.000692045  0
0.171125 -0.000597201  0
0.171374 -0.000499011  0
0.171568 -0.000398904  0
0.171706 -0.000298352  0