# vtk DataFile Version 4.0
Nusif VTK output
ASCII
DATASET STRUCTURED_POINTS
DIMENSIONS 50 50 1
ORIGIN 0 0 0 
SPACING 0.02 0.02 1
POINT_DATA 2500 

VECTORS velocity double
0.919718 0.0802817  0
0.747632 0.0918046  0
0.583865 0.0719619  0
0.461526 0.0503777  0
0.377329 0.0338192  0
0.320945 0.0225652  0
0.283101 0.0152785  0
0.25723 0.010593  0
0.239114 0.00752287  0
0.226139 0.005452  0
0.216666 0.00402102  0
0.209619 0.00302566  0
0.204245 0.00234848  0
0.199978 0.00191815  0
0.196375 0.00168526  0
0.193083 0.00160697  0
0.189839 0.00163619  0
0.186491 0.00171226  0
0.183027 0.00175132  0
0.179643 0.00163286  0
0.176829 0.00118092  0
0.1755 0.000148603  0
0.177101 -0.00174953  0
0.183854 -0.00500326  0
0.199146 -0.0102894  0
0.227824 -0.0183877  0
0.275982 -0.0297702  0
0.349226 -0.043474  0
0.447772 -0.0550715  0
0.558459 -0.0556159  0
0.653147 -0.0390718  0
0.710519 -0.0183002  0
0.731598 -0.00277934  0
0.72895 0.00542784  0
0.714759 0.00876338  0
0.696574 0.00942154  0
0.677907 0.00924542  0
0.659069 0.00959189  0
0.638051 0.0114265  0
0.611388 0.0152366  0
0.575648 0.0205033  0
0.530049 0.0250948  0
0.477977 0.0269773  0
0.425253 0.0257467  0
0.377322 0.0221844  0
0.337796 0.0173418  0
0.308429 0.0120251  0
0.289624 0.00677961  0
0.280547 0.00229732  0
0.278245 4.86919e-06  0
1.0211 0.139468  0
1.03221 0.193587  0
0.991541 0.174619  0
0.923242 0.138359  0
0.849186 0.10409  0
0.780972 0.0768935  0
0.723062 0.0567034  0
0.676065 0.0420365  0
0.638877 0.0313834  0
0.609854 0.0235891  0
0.587348 0.0178627  0
0.569891 0.0136878  0
0.556221 0.0107305  0
0.545258 0.00876619  0
0.536073 0.00762527  0
0.527882 0.00714997  0
0.52006 0.00715859  0
0.512187 0.00741129  0
0.504129 0.00757336  0
0.496158 0.00716655  0
0.489118 0.00550057  0
0.484678 0.00159871  0
0.48562 -0.0057421  0
0.495972 -0.0181153  0
0.521296 -0.0377944  0
0.569004 -0.0672678  0
0.647958 -0.108002  0
0.766533 -0.157061  0
0.926961 -0.200458  0
1.11315 -0.207101  0
1.28104 -0.150167  0
1.39621 -0.079752  0
1.45991 -0.0261027  0
1.48601 0.00530036  0
1.4891 0.0199856  0
1.48017 0.0253155  0
1.46497 0.0272183  0
1.44513 0.0302943  0
1.41871 0.0381638  0
1.38062 0.0532522  0
1.32418 0.0746698  0
1.24634 0.0943689  0
1.15198 0.104131  0
1.05121 0.102095  0
0.95423 0.0907421  0
0.868921 0.0736193  0
0.800403 0.0536324  0
0.751546 0.0328343  0
0.723422 0.0134431  0
0.714569 1.37532e-05  0
1.02299 0.0953846  0
1.06658 0.182959  0
1.09231 0.200189  0
1.08943 0.183975  0
1.06573 0.156229  0
1.03124 0.127451  0
0.993523 0.101778  0
0.95717 0.0803116  0
0.924555 0.062912  0
0.896585 0.0490533  0
0.873304 0.0381849  0
0.854276 0.0298507  0
0.838811 0.0237027  0
0.826096 0.0194731  0
0.815271 0.016928  0
0.805494 0.0158147  0
0.796004 0.0158058  0
0.786203 0.0164379  0
0.775763 0.0170444  0
0.764759 0.0166713  0
0.753833 0.0139616  0
0.744403 0.00700785  0
0.73905 -0.00674038  0
0.741708 -0.0301266  0
0.757757 -0.067156  0
0.794427 -0.122285  0
0.861179 -0.19869  0
0.969414 -0.293182  0
1.12841 -0.383757  0
1.3274 -0.408984  0
1.49919 -0.287965  0
1.59907 -0.157011  0
1.65092 -0.0643887  0
1.67805 -0.00964604  0
1.69187 0.018023  0
1.69805 0.0300221  0
1.6999 0.0358656  0
1.69816 0.0432218  0
1.69086 0.0589569  0
1.67183 0.0895813  0
1.62934 0.137271  0
1.55576 0.183194  0
1.45835 0.207067  0
1.35202 0.206274  0
1.24898 0.186579  0
1.15724 0.154829  0
1.08187 0.116311  0
1.02625 0.0746392  0
0.992719 0.0332884  0
0.981718 2.12641e-05  0
1.01426 0.0581382  0
1.05188 0.138993  0
1.09428 0.17602  0
1.12378 0.181534  0
1.13677 0.169375  0
1.13624 0.149313  0
1.12682 0.127057  0
1.11266 0.105551  0
1.09681 0.0861405  0
1.08126 0.0693405  0
1.06715 0.0552859  0
1.05497 0.0439599  0
1.04473 0.0352962  0
1.03612 0.0292049  0
1.02859 0.0255551  0
1.02143 0.0241259  0
1.01387 0.0245399  0
1.00519 0.0261836  0
0.994814 0.0281175  0
0.982442 0.0289738  0
0.968201 0.0268262  0
0.95276 0.0190147  0
0.937461 0.00190377  0
0.924983 -0.0289504  0
0.919434 -0.078832  0
0.926474 -0.154318  0
0.954664 -0.261599  0
1.01724 -0.401087  0
1.13215 -0.549751  0
1.3028 -0.61264  0
1.41877 -0.372059  0
1.42602 -0.180051  0
1.40685 -0.0740236  0
1.39769 -0.0179926  0
1.40067 0.00958146  0
1.41149 0.0214547  0
1.42671 0.0273694  0
1.44492 0.0352482  0
1.4658 0.053348  0
1.48614 0.0938758  0
1.48773 0.173874  0
1.45029 0.257623  0
1.38319 0.297142  0
1.3092 0.296523  0
1.23933 0.269231  0
1.1777 0.225548  0
1.12661 0.172058  0
1.08825 0.112877  0
1.06481 0.0520125  0
1.05708 2.7445e-05  0
1.00817 0.0357058  0
1.03461 0.0973728  0
1.07321 0.136633  0
1.11094 0.153703  0
1.1409 0.154245  0
1.16142 0.144447  0
1.17362 0.129146  0
1.17963 0.111618  0
1.18164 0.0939157  0
1.18147 0.0772842  0
1.18043 0.0624845  0
1.17937 0.0500069  0
1.17867 0.0401891  0
1.17833 0.0332618  0
1.17802 0.0293436  0
1.17712 0.02839  0
1.17484 0.0301129  0
1.17025 0.0338816  0
1.16243 0.0386168  0
1.15059 0.0426867  0
1.13415 0.0437912  0
1.11284 0.0388107  0
1.08666 0.0235802  0
1.05608 -0.00756379  0
1.02271 -0.0612988  0
0.989394 -0.145579  0
0.960493 -0.269627  0
0.94408 -0.439226  0
0.95493 -0.63737  0
1.00614 -0.746886  0
0.958028 -0.19519  0
0.788817 -0.084492  0
0.671367 -0.0329583  0
0.629934 -0.00847403  0
0.624241 0.00278071  0
0.634349 0.00732664  0
0.651152 0.00947665  0
0.673357 0.0127288  0
0.707214 0.0211284  0
0.770653 0.0423101  0
0.873677 0.0907693  0
0.952076 0.269722  0
0.976501 0.327719  0
0.98659 0.329847  0
0.990245 0.302115  0
0.9884 0.256142  0
0.982938 0.198022  0
0.976649 0.131561  0
0.972187 0.0612273  0
0.970697 3.1993e-05  0
1.00486 0.0226687  0
1.02264 0.066198  0
1.05265 0.0991974  0
1.08741 0.118651  0
1.12109 0.125651  0
1.15052 0.123088  0
1.17476 0.114075  0
1.19418 0.101255  0
1.20979 0.0866542  0
1.22274 0.0717734  0
1.23404 0.0577322  0
1.24445 0.0454073  0
1.25442 0.0355176  0
1.26404 0.0286571  0
1.27301 0.0252869  0
1.28069 0.0256629  0
1.28608 0.0297284  0
1.28795 0.0369849  0
1.28493 0.0463616  0
1.27558 0.0561269  0
1.25856 0.0638101  0
1.23257 0.0661035  0
1.19633 0.0586952  0
1.14838 0.0358623  0
1.08686 -0.00983349  0
1.01026 -0.0871413  0
0.91615 -0.20505  0
0.797787 -0.369027  0
0.636272 -0.556904  0
0.270598 -0.623363  0
-0.437404 0.232382  0
-0.789804 0  0
-0.671689 0  0
-0.630015 0  0
-0.624198 0  0
-0.63425 0  0
-0.651026 0  0
-0.67323 0  0
-0.707114 0  0
-0.770637 0  0
-0.406504 0  0
0.164822 0.126018  0
0.412609 0.238014  0
0.549885 0.272185  0
0.640984 0.265023  0
0.702348 0.233715  0
0.742673 0.185587  0
0.767758 0.1252  0
0.78144 0.0583687  0
0.785784 3.53598e-05  0
1.00312 0.0146885  0
1.01526 0.0442528  0
1.03754 0.0688648  0
1.06612 0.0856376  0
1.09716 0.0939462  0
1.12781 0.0947078  0
1.1565 0.08954  0
1.18266 0.0801965  0
1.20647 0.068293  0
1.22842 0.0552386  0
1.24914 0.0422524  0
1.26917 0.0304349  0
1.28888 0.0208104  0
1.3083 0.0143313  0
1.32707 0.0118712  0
1.34436 0.0141053  0
1.3589 0.0213567  0
1.36897 0.033411  0
1.3726 0.049336  0
1.36767 0.0674295  0
1.35199 0.0852072  0
1.3233 0.0993872  0
1.27914 0.105808  0
1.21661 0.0992392  0
1.13186 0.0730534  0
1.0192 0.0192264  0
0.871353 -0.0694561  0
0.678922 -0.193828  0
0.431052 -0.322718  0
0.145971 -0.317265  0
0 0.318356  0
0 0  0
0 0  0
3.56774e-19 0  0
-1.39929e-19 0  0
-1.58333e-19 0  0
1.81284e-19 0  0
-7.91369e-20 0  0
7.79482e-20 0  0
0 0  0
0 0  0
0 0  0
0.0766777 0.0775246  0
0.218228 0.153001  0
0.335318 0.176019  0
0.426077 0.170596  0
0.49121 0.143248  0
0.534295 0.0993689  0
0.55838 0.0464322  0
0.565969 3.83688e-05  0
1.00216 0.00941554  0
1.01079 0.028739  0
1.02735 0.0455486  0
1.04997 0.0577534  0
1.07639 0.0643723  0
1.1046 0.0654229  0
1.13316 0.0615775  0
1.16131 0.0538443  0
1.1888 0.0433465  0
1.21579 0.0312453  0
1.24263 0.0186863  0
1.26973 0.00686238  0
1.29739 -0.00297818  0
1.3256 -0.00950597  0
1.3539 -0.0113621  0
1.38124 -0.00729914  0
1.40589 0.00356944  0
1.42556 0.0214603  0
1.43753 0.0456899  0
1.4389 0.0746346  0
1.42671 0.105866  0
1.39786 0.136268  0
1.34891 0.162039  0
1.27585 0.178611  0
1.17369 0.180579  0
1.03613 0.161926  0
0.855123 0.116697  0
0.623192 0.044381  0
0.348385 -0.0382487  0
0.101513 -0.0697813  0
0 0.0702598  0
0 0  0
0 4.35572e-19  0
1.18398e-20 -2.01555e-19  0
-3.23559e-19 2.88862e-19  0
2.69918e-19 6.30552e-19  0
4.03843e-19 -5.95508e-19  0
-2.13151e-19 -2.77608e-19  0
-1.16774e-20 1.7511e-19  0
0 -4.21467e-19  0
0 0  0
0 0  0
0 0.00566308  0
0.0416688 0.0385582  0
0.130308 0.0768323  0
0.214701 0.0946308  0
0.279325 0.0894567  0
0.32385 0.0655501  0
0.349058 0.0309586  0
0.356939 4.14924e-05  0
1.00159 0.0056703  0
1.00801 0.0174217  0
1.0206 0.0277147  0
1.03845 0.0351211  0
1.0603 0.0387433  0
1.08487 0.0382721  0
1.11116 0.0338741  0
1.13851 0.0260522  0
1.16666 0.0155008  0
1.19567 0.00308753  0
1.22586 -0.0101905  0
1.25765 -0.0231492  0
1.29139 -0.0343653  0
1.32718 -0.0421207  0
1.36459 -0.0444571  0
1.40237 -0.0393233  0
1.43828 -0.0249666  0
1.46912 -0.00051348  0
1.49122 0.0335943  0
1.50086 0.0757178  0
1.49442 0.123406  0
1.46824 0.173768  0
1.41822 0.223499  0
1.33964 0.268802  0
1.22685 0.305335  0
1.07328 0.328304  0
0.872076 0.332526  0
0.620364 0.312196  0
0.334833 0.254275  0
0.0938345 0.125566  0
0 -0.125358  0
0 0  0
0 -2.8961e-19  0
4.76051e-19 3.75837e-19  0
6.15963e-19 5.93144e-19  0
-5.40187e-19 1.81976e-19  0
-5.24795e-19 -2.58411e-19  0
7.01356e-19 1.55667e-19  0
5.46052e-19 -6.56069e-19  0
0 -1.1255e-19  0
0 0  0
0 0  0
0 0.0195913  0
0.00830301 -0.0193145  0
0.038161 0.00830704  0
0.0829805 0.0339437  0
0.125732 0.0427678  0
0.158453 0.0349926  0
0.17775 0.0170119  0
0.183812 4.45812e-05  0
1.00123 0.00285315  0
1.0062 0.00884753  0
1.01604 0.0138566  0
1.03029 0.0168806  0
1.04825 0.0171743  0
1.06919 0.0143291  0
1.09246 0.00825313  0
1.11768 -0.000896776  0
1.14474 -0.0127507  0
1.17382 -0.0267498  0
1.20536 -0.0420878  0
1.23998 -0.057665  0
1.27833 -0.0719406  0
1.32081 -0.0828156  0
1.3672 -0.087565  0
1.41617 -0.0829646  0
1.46482 -0.0658727  0
1.50875 -0.0343832  0
1.54294 0.0111723  0
1.56274 0.0686953  0
1.5642 0.135405  0
1.5435 0.20866  0
1.49633 0.285792  0
1.41754 0.363882  0
1.30106 0.439525  0
1.14014 0.508602  0
0.928332 0.56524  0
0.663491 0.596036  0
0.36227 0.557186  0
0.103262 0.322662  0
0 -0.32262  0
0 0  0
0 -5.20203e-19  0
-2.04927e-20 4.86831e-19  0
-6.43279e-19 2.38467e-19  0
-4.98599e-19 1.88467e-19  0
3.88726e-19 3.62932e-19  0
-5.06735e-19 -3.33554e-19  0
-7.71274e-19 -8.06807e-19  0
0 -4.60009e-20  0
0 0  0
0 0  0
0 0.0242362  0
-0.00360919 -0.0240082  0
-0.00447593 -0.0159903  0
0.00650683 0.00243892  0
0.0242514 0.0137761  0
0.0411546 0.0143604  0
0.0520787 0.00742294  0
0.055603 4.70645e-05  0
1.00098 0.000645719  0
1.00494 0.00213155  0
1.01281 0.0028594  0
1.02435 0.00208543  0
1.03917 -0.000820679  0
1.05686 -0.00629695  0
1.07706 -0.0145992  0
1.09962 -0.0258225  0
1.12462 -0.0398788  0
1.15244 -0.0565194  0
1.1838 -0.0752167  0
1.21969 -0.0950564  0
1.2613 -0.114505  0
1.30968 -0.131112  0
1.36521 -0.141194  0
1.42666 -0.139753  0
1.49022 -0.121287  0
1.54953 -0.0822037  0
1.5976 -0.0232734  0
1.62904 0.0518994  0
1.64011 0.139672  0
1.62751 0.237696  0
1.5872 0.344242  0
1.51384 0.457573  0
1.40087 0.575283  0
1.24091 0.693717  0
1.0266 0.806251  0
0.752837 0.893629  0
0.428677 0.884973  0
0.128319 0.554243  0
0 -0.554365  0
0 0  0
0 -1.3406e-20  0
4.02866e-20 1.20041e-19  0
1.15503e-19 1.14603e-19  0
-3.56612e-19 5.61993e-19  0
-7.81053e-19 2.58353e-20  0
-3.12776e-19 -7.6683e-19  0
3.6449e-20 2.4372e-20  0
0 -3.54918e-19  0
0 0  0
0 0  0
0 0.010308  0
-0.0103333 -0.0101512  0
-0.028214 -0.0111853  0
-0.0376003 -0.00396252  0
-0.0376756 0.00250842  0
-0.0333859 0.00443528  0
-0.0294628 0.00250072  0
-0.0280664 4.84977e-05  0
1.0008 -0.00113227  0
1.00401 -0.00326262  0
1.01042 -0.00602823  0
1.01988 -0.0100208  0
1.03214 -0.0158002  0
1.04696 -0.0238278  0
1.06418 -0.0344905  0
1.08378 -0.0480893  0
1.10601 -0.0648379  0
1.13146 -0.0848371  0
1.16118 -0.107965  0
1.19666 -0.13369  0
1.2399 -0.160717  0
1.29303 -0.186411  0
1.35759 -0.205985  0
1.43292 -0.211745  0
1.51396 -0.193897  0
1.59085 -0.14578  0
1.65367 -0.0706024  0
1.69675 0.0247156  0
1.71788 0.134661  0
1.71557 0.257612  0
1.68666 0.393551  0
1.6256 0.542672  0
1.52481 0.703945  0
1.37579 0.874037  0
1.16978 1.04625  0
0.896794 1.20038  0
0.549633 1.24955  0
0.17855 0.861111  0
0 -0.861467  0
0 0  0
0 -2.18385e-19  0
1.83697e-21 2.10602e-19  0
-3.58106e-19 1.80418e-19  0
-3.59943e-19 -7.50493e-20  0
5.31453e-19 0  0
8.78023e-20 0  0
-4.43651e-19 0  0
0 0  0
0 0  0
0 -0.00928711  0
-0.00925622 0.00934174  0
-0.0292982 0.0108824  0
-0.0490046 0.00528258  0
-0.0628668 0.00281796  0
-0.0694725 0.00240901  0
-0.0711849 0.00195726  0
-0.0710252 0.000895893  0
-0.0708172 4.87123e-05  0
1.00066 -0.00258866  0
1.0033 -0.00766517  0
1.00856 -0.013295  0
1.01632 -0.0199705  0
1.02642 -0.0282063  0
1.03866 -0.0384939  0
1.05295 -0.0513294  0
1.06933 -0.0672239  0
1.08811 -0.0867125  0
1.11002 -0.110334  0
1.13638 -0.138538  0
1.16924 -0.171466  0
1.21154 -0.208477  0
1.26697 -0.247209  0
1.33909 -0.281869  0
1.42872 -0.300824  0
1.5291 -0.286239  0
1.62369 -0.224908  0
1.69804 -0.128653  0
1.74891 -0.011179  0
1.77848 0.119856  0
1.78855 0.264657  0
1.77743 0.426532  0
1.73886 0.609319  0
1.6627 0.81425  0
1.53831 1.03715  0
1.35724 1.27021  0
1.10873 1.49791  0
0.764763 1.64314  0
0.281849 1.32151  0
0 -1.32259  0
0 0  0
0 0  0
2.88586e-19 0  0
-2.12018e-19 0  0
-5.00604e-19 0  0
0 0  0
0 0  0
0 0  0
0 0  0
0.017864 0  0
0.017864 -0.00928711  0
-0.0169796 0.0305829  0
-0.0429157 0.0306248  0
-0.0580722 0.0204029  0
-0.0679094 0.0113971  0
-0.0731544 0.00568055  0
-0.075207 0.00245062  0
-0.0757065 0.000742278  0
-0.07576 4.77305e-05  0
1.00054 -0.0037905  0
1.00273 -0.0112874  0
1.00706 -0.0192631  0
1.01342 -0.028129  0
1.02164 -0.038359  0
1.03151 -0.0504625  0
1.04289 -0.0650305  0
1.05577 -0.0827736  0
1.07039 -0.104563  0
1.08744 -0.131456  0
1.10832 -0.164654  0
1.13544 -0.205332  0
1.17265 -0.254121  0
1.22547 -0.309813  0
1.30044 -0.366357  0
1.40154 -0.407058  0
1.52038 -0.399226  0
1.62728 -0.313411  0
1.70116 -0.188377  0
1.74846 -0.0496183  0
1.78081 0.0963704  0
1.80528 0.253598  0
1.82231 0.431676  0
1.82335 0.641711  0
1.79141 0.88996  0
1.70975 1.16749  0
1.57443 1.45627  0
1.38955 1.74523  0
1.15006 1.97928  0
0.507499 1.86933  0
-0.434401 -0.80251  0
-0.582705 0  0
-0.195572 0  0
-0.0378903 0  0
0.0355389 0  0
0.0600076 0  0
0.0676227 0  0
0.0653401 0  0
0.0611651 0  0
0.0296018 0  0
-0.0178485 0.0118129  0
-0.0445042 0.0138873  0
-0.0523729 0.041544  0
-0.0499898 0.0381367  0
-0.0479356 0.0259933  0
-0.0469318 0.0146402  0
-0.0460211 0.00677166  0
-0.0449716 0.00236264  0
-0.0441412 0.000499356  0
-0.0438425 4.56495e-05  0
1.00045 -0.00478854  0
1.00227 -0.0142899  0
1.00587 -0.0241839  0
1.01109 -0.0347942  0
1.01771 -0.0465354  0
1.02546 -0.0599037  0
1.03403 -0.075545  0
1.04322 -0.0943276  0
1.05303 -0.117433  0
1.06384 -0.146454  0
1.07677 -0.183467  0
1.09413 -0.230997  0
1.1201 -0.291642  0
1.16164 -0.366648  0
1.22872 -0.451577  0
1.33089 -0.5251  0
1.46079 -0.529923  0
1.56268 -0.391509  0
1.60672 -0.228189  0
1.62647 -0.0768541  0
1.65043 0.0672995  0
1.69232 0.216301  0
1.75465 0.389613  0
1.82504 0.612349  0
1.87003 0.906268  0
1.85315 1.24972  0
1.77305 1.58947  0
1.66875 1.90121  0
1.55927 2.17226  0
1.49329 2.14336  0
1.14335 0.583411  0
0.568732 0.232737  0
0.20527 0.130724  0
0.0315231 0.0430231  0
-0.0339145 0.0224146  0
-0.061834 0.00550503  0
-0.0679571 0.00061813  0
-0.0660074 -0.00256774  0
-0.0614988 -0.00194074  0
-0.0563713 0.00284906  0
-0.0491871 0.0196284  0
-0.04093 0.0235151  0
-0.0283137 0.032249  0
-0.0122492 0.0289842  0
0.00115966 0.0196828  0
0.01087 0.0102365  0
0.0176976 0.00343683  0
0.022347 -1.59538e-06  0
0.0250147 -0.000634496  0
0.0258527 4.29856e-05  0
1.00039 -0.00563368  0
1.00196 -0.0168303  0
1.00503 -0.0283098  0
1.00942 -0.0402829  0
1.01482 -0.0530671  0
1.02079 -0.0670897  0
1.02684 -0.0829777  0
1.03242 -0.101665  0
1.03706 -0.12454  0
1.04053 -0.153638  0
1.04317 -0.191852  0
1.04634 -0.243137  0
1.05332 -0.312458  0
1.07066 -0.404706  0
1.10991 -0.519849  0
1.18717 -0.636261  0
1.3042 -0.665692  0
1.35998 -0.413413  0
1.31899 -0.209329  0
1.27595 -0.0724187  0
1.27768 0.0371763  0
1.33877 0.143443  0
1.46426 0.274643  0
1.64601 0.47518  0
1.82456 0.819895  0
1.90304 1.27449  0
1.88191 1.66593  0
1.8225 1.98847  0
1.84966 2.16732  0
1.82953 2.23441  0
1.727 1.18637  0
1.33339 0.839537  0
0.877676 0.343102  0
0.59925 0.282819  0
0.332312 0.114994  0
0.195039 0.0781183  0
0.100177 0.0289899  0
0.0560781 0.0112098  0
0.0348466 0.00100482  0
0.0315943 0.00406427  0
0.0393043 0.00955484  0
0.0525661 0.01207  0
0.0687047 0.0149394  0
0.0861894 0.0127447  0
0.101715 0.00698732  0
0.114026 0.00091113  0
0.123143 -0.00318237  0
0.129382 -0.00427127  0
0.132958 -0.00260892  0
0.134098 3.97727e-05  0
1.00036 -0.00638606  0
1.00181 -0.0190918  0
1.00463 -0.0319417  0
1.00858 -0.0449975  0
1.01326 -0.0584266  0
1.01807 -0.0725094  0
1.02221 -0.0877435  0
1.02471 -0.104978  0
1.02445 -0.125612  0
1.02028 -0.15187  0
1.01118 -0.187155  0
0.996636 -0.23646  0
0.977204 -0.306684  0
0.955478 -0.406091  0
0.937806 -0.54004  0
0.9366 -0.692131  0
0.961323 -0.751578  0
0.876425 -0.201255  0
0.682702 -0.0896213  0
0.563352 -0.0297285  0
0.544866 0.0112423  0
0.60463 0.0485222  0
0.750925 0.0977728  0
1.03496 0.186264  0
1.44119 0.372  0
1.7016 1.23146  0
1.74104 1.69064  0
1.80305 1.96116  0
1.76264 2.20787  0
2.04048 1.93615  0
1.84711 1.78053  0
1.67421 0.811883  0
1.50393 0.99675  0
1.05376 0.357763  0
0.911592 0.449161  0
0.61801 0.174805  0
0.497621 0.147554  0
0.373938 0.0604277  0
0.311373 0.0355832  0
0.269011 0.0151007  0
0.250262 0.0095573  0
0.243537 0.00553159  0
0.245208 0.00366793  0
0.251287 0.000452144  0
0.258792 -0.00375096  0
0.265728 -0.00759724  0
0.271431 -0.00949335  0
0.275728 -0.00849747  0
0.278455 -0.00468591  0
0.279396 3.60801e-05  0
1.00037 -0.00711966  0
1.00186 -0.0212984  0
1.00477 -0.035456  0
1.00879 -0.0494678  0
1.01345 -0.0632912  0
1.01797 -0.0769663  0
1.02126 -0.0907195  0
1.02187 -0.105112  0
1.01792 -0.121273  0
1.00711 -0.141223  0
0.986723 -0.168317  0
0.953712 -0.207745  0
0.904641 -0.266896  0
0.835117 -0.354628  0
0.737326 -0.47604  0
0.591788 -0.609388  0
0.251762 -0.616173  0
-0.387082 0.231599  0
-0.6841 0  0
-0.564167 0  0
-0.545491 0  0
-0.605235 0  0
-0.751694 0  0
-1.03625 0  0
-0.611446 -0.308382  0
0.437223 0.905829  0
1.08328 1.48281  0
1.34371 1.84655  0
1.75369 1.9529  0
1.5407 2.12627  0
1.97405 1.35043  0
1.79243 1.5965  0
1.55112 0.623723  0
1.65648 1.0756  0
1.18133 0.348651  0
1.19981 0.550416  0
0.894347 0.197794  0
0.820875 0.207343  0
0.680944 0.0911641  0
0.61368 0.069146  0
0.552203 0.0357383  0
0.515848 0.0224309  0
0.490352 0.0105932  0
0.475088 0.00271215  0
0.465655 -0.00408276  0
0.46031 -0.00885647  0
0.457447 -0.0110734  0
0.456246 -0.0100153  0
0.456066 -0.0057142  0
0.456156 3.29075e-05  0
1.00043 -0.00792232  0
1.00216 -0.0237153  0
1.00553 -0.0393088  0
1.01024 -0.0543624  0
1.01576 -0.0685691  0
1.02119 -0.0816318  0
1.02519 -0.0933497  0
1.02585 -0.103758  0
1.02055 -0.113371  0
1.00578 -0.123539  0
0.977088 -0.136926  0
0.928974 -0.158012  0
0.854692 -0.193277  0
0.745744 -0.249774  0
0.59122 -0.328579  0
0.380204 -0.400294  0
0.129687 -0.331877  0
0 0.33306  0
0 0  0
0.00068142 0  0
0.00203859 0  0
0.00198918 0  0
0.000632012 0  0
0 0  0
0 -0.409954  0
0.210546 0.410096  0
0.620385 1.07469  0
1.08259 1.53203  0
1.12432 1.81571  0
1.84695 1.75383  0
1.3982 1.73828  0
1.70568 1.08278  0
1.77304 1.31139  0
1.4298 0.625807  0
1.75002 0.953384  0
1.29752 0.379696  0
1.42563 0.545871  0
1.13207 0.226295  0
1.09749 0.246728  0
0.952331 0.126  0
0.887785 0.104908  0
0.815191 0.0622103  0
0.76859 0.0429106  0
0.730275 0.0239739  0
0.703024 0.0113394  0
0.682546 0.00154544  0
0.668257 -0.0043238  0
0.659095 -0.00640231  0
0.654418 -0.00447002  0
0.653089 2.81212e-05  0
1.00054 -0.00889076  0
1.0027 -0.0266345  0
1.00695 -0.0440116  0
1.01303 -0.0604597  0
1.02042 -0.0753725  0
1.0282 -0.0880344  0
1.03491 -0.0976642  0
1.03832 -0.10352  0
1.03515 -0.10513  0
1.02082 -0.102676  0
0.989266 -0.0975477  0
0.9329 -0.09291  0
0.84276 -0.0939566  0
0.709056 -0.106442  0
0.524249 -0.132581  0
0.295933 -0.156959  0
0.0867139 -0.115477  0
0 0.115995  0
0 -0.000681452  0
-0.000677845 0.000677815  0
-0.00203013 0.000674415  0
-0.00198055 -0.0007241  0
-0.00062826 -0.000628296  0
0 0.000631974  0
0 -0.107627  0
0.0924831 0.107066  0
0.379552 0.680808  0
0.676639 1.16662  0
1.26773 1.5483  0
0.967567 1.59877  0
1.75744 1.55222  0
1.43227 1.28653  0
1.44212 1.03044  0
1.74063 0.951478  0
1.35675 0.69138  0
1.72916 0.721787  0
1.35876 0.446069  0
1.50918 0.469236  0
1.27449 0.273065  0
1.262 0.257304  0
1.13883 0.161319  0
1.08543 0.131797  0
1.01784 0.0875093  0
0.972644 0.0628904  0
0.932733 0.0395844  0
0.903115 0.0233974  0
0.880293 0.010935  0
0.864619 0.00317483  0
0.855558 -0.000309048  0
0.852723 3.156e-05  0
1.00069 -0.0101197  0
1.00347 -0.030341  0
1.00898 -0.0500763  0
1.01708 -0.0685711  0
1.02736 -0.0849248  0
1.03905 -0.0979595  0
1.05079 -0.10619  0
1.06024 -0.107853  0
1.06371 -0.101093  0
1.05572 -0.0843945  0
1.02877 -0.0573271  0
0.973472 -0.0214659  0
0.878966 0.0192449  0
0.734354 0.0586738  0
0.533388 0.0880759  0
0.290466 0.0936229  0
0.0811945 0.0524316  0
0 -0.0522792  0
0 -0.00443799  0
-0.00307032 0.00442596  0
-0.00823764 0.00344579  0
-0.00804755 -0.00373527  0
-0.00288024 -0.00413684  0
0 0.00414952  0
0 0.0260743  0
0.0399373 -0.0253541  0
0.207484 0.358613  0
0.559741 0.839471  0
0.706001 1.13809  0
1.47061 1.54454  0
1.03035 1.25684  0
1.52211 1.41532  0
1.50246 0.911448  0
1.28707 0.987346  0
1.65139 0.67507  0
1.3202 0.696887  0
1.61758 0.543975  0
1.3696 0.468899  0
1.48343 0.394265  0
1.33464 0.297375  0
1.33047 0.248596  0
1.24699 0.181397  0
1.20896 0.143527  0
1.15806 0.102968  0
1.12246 0.0750177  0
1.08997 0.0500702  0
1.06574 0.0313235  0
1.04773 0.0164678  0
1.03714 0.00604488  0
1.03364 1.11979e-05  0
1.00087 -0.0116846  0
1.00438 -0.0350602  0
1.01143 -0.0579232  0
1.02202 -0.0794091  0
1.03604 -0.0983875  0
1.05309 -0.113243  0
1.07218 -0.121727  0
1.09126 -0.120847  0
1.10662 -0.106929  0
1.11214 -0.0760842  0
1.0988 -0.0253571  0
1.05502 0.0456438  0
0.967789 0.133875  0
0.824287 0.232159  0
0.615457 0.324387  0
0.350301 0.365391  0
0.103305 0.236931  0
0 -0.237119  0
0 -0.0159863  0
-0.00846441 0.0159607  0
-0.0216561 0.01027  0
-0.020992 -0.0114138  0
-0.00780028 -0.0148174  0
0 0.0148463  0
0 0.0783121  0
0.0133889 -0.0786802  0
0.120824 0.136958  0
0.33301 0.496683  0
0.752671 0.914957  0
0.745697 1.01003  0
1.47405 1.50326  0
1.19037 0.960831  0
1.31851 1.25743  0
1.49449 0.680777  0
1.23878 0.873023  0
1.53109 0.537814  0
1.31474 0.62202  0
1.50318 0.450397  0
1.37045 0.431662  0
1.43784 0.341375  0
1.36081 0.285805  0
1.35832 0.230147  0
1.31058 0.180551  0
1.28631 0.141115  0
1.25365 0.105129  0
1.22983 0.0762659  0
1.20822 0.0509775  0
1.19289 0.0301488  0
1.18318 0.0126626  0
1.18003 3.8043e-05  0
1.00106 -0.0136183  0
1.00531 -0.0408859  0
1.01392 -0.0677545  0
1.02715 -0.0933953  0
1.04532 -0.116595  0
1.06866 -0.13543  0
1.09699 -0.146955  0
1.12913 -0.14684  0
1.16195 -0.129119  0
1.18906 -0.0865216  0
1.19973 -0.012254  0
1.17933 0.0967211  0
1.11204 0.237325  0
0.982386 0.401861  0
0.774997 0.570902  0
0.481401 0.677628  0
0.156428 0.496663  0
0 -0.497376  0
0 -0.0432579  0
-0.0187809 0.043206  0
-0.0456486 0.0230839  0
-0.0435667 -0.0269739  0
-0.0166991 -0.0393167  0
0 0.0393812  0
0 0.0923049  0
0.00028089 -0.09235  0
0.0513437 -0.0078698  0
0.222475 0.258194  0
0.423984 0.532275  0
0.878481 0.945191  0
0.831803 0.886429  0
1.32728 1.36586  0
1.28617 0.765375  0
1.23824 1.04478  0
1.43239 0.570573  0
1.25832 0.722024  0
1.44019 0.472305  0
1.33137 0.520488  0
1.43421 0.391453  0
1.37675 0.371661  0
1.41198 0.297318  0
1.37823 0.254869  0
1.37665 0.205142  0
1.35266 0.164792  0
1.33883 0.127942  0
1.32065 0.0954554  0
1.30722 0.066826  0
1.29579 0.0410633  0
1.28903 0.0182124  0
1.28666 4.39601e-06  0
1.0012 -0.0158827  0
1.00603 -0.0476931  0
1.01587 -0.0793982  0
1.03131 -0.110415  0
1.05325 -0.139691  0
1.08284 -0.165272  0
1.12119 -0.183794  0
1.16877 -0.189717  0
1.22413 -0.174415  0
1.28155 -0.125759  0
1.32826 -0.0303918  0
1.34496 0.118554  0
1.31222 0.315527  0
1.21367 0.551865  0
1.03017 0.811784  0
0.727609 1.0329  0
0.27044 0.92353  0
0 -0.925449  0
0 -0.0925481  0
-0.0304658 0.0924527  0
-0.0687128 0.0389516  0
-0.0639655 -0.049671  0
-0.0257185 -0.0817343  0
0 0.081885  0
0 0.0863648  0
-0.00595748 -0.0866735  0
0.0125318 -0.0830986  0
0.107189 0.0676344  0
0.308779 0.319736  0
0.4826 0.529412  0
0.896346 0.93514  0
0.932429 0.785585  0
1.20012 1.11907  0
1.29025 0.648881  0
1.24018 0.822391  0
1.37473 0.509728  0
1.29526 0.582207  0
1.39308 0.421581  0
1.3524 0.4282  0
1.40474 0.340039  0
1.38623 0.312218  0
1.4046 0.255348  0
1.39286 0.217974  0
1.39286 0.175959  0
1.38264 0.140829  0
1.37615 0.107233  0
1.3678 0.0768269  0
1.36197 0.0483286  0
1.3578 0.0218716  0
1.3565 1.67284e-05  0
1.00125 -0.0183395  0
1.00624 -0.0550499  0
1.01651 -0.0921454  0
1.03295 -0.12955  0
1.05715 -0.1667  0
1.09135 -0.202058  0
1.13841 -0.232417  0
1.20138 -0.251644  0
1.28214 -0.248602  0
1.37776 -0.204617  0
1.47403 -0.0945159  0
1.54285 0.0971551  0
1.55895 0.353571  0
1.51104 0.660288  0
1.39272 1.00517  0
1.18598 1.34882  0
0.528398 1.46683  0
-0.588951 -0.598378  0
-0.588951 -0.0615199  0
-0.00964517 0.103708  0
-0.0165676 0.0440099  0
-0.0194514 -0.0565929  0
-0.012529 -0.100563  0
-0.0626561 0.0538325  0
-0.0626561 0.0402429  0
0.00578427 -0.0870323  0
0.0216824 -0.117659  0
0.072262 -0.0430421  0
0.1839 0.117185  0
0.385547 0.356494  0
0.5514 0.528458  0
0.873626 0.833958  0
0.996603 0.680034  0
1.14752 0.84687  0
1.2564 0.565599  0
1.25429 0.634078  0
1.33647 0.455148  0
1.31905 0.468238  0
1.37143 0.36984  0
1.36579 0.351695  0
1.39406 0.290801  0
1.39344 0.259016  0
1.40482 0.214664  0
1.40358 0.180517  0
1.4055 0.144574  0
1.40283 0.112637  0
1.40113 0.0814744  0
1.39861 0.052028  0
1.3972 0.0237553  0
1.39662 2.05819e-05  0
1.00113 -0.0207254  0
1.00563 -0.0621492  0
1.01494 -0.104626  0
1.03028 -0.148854  0
1.05381 -0.195123  0
1.08885 -0.24287  0
1.14012 -0.289936  0
1.21394 -0.330914  0
1.31739 -0.353539  0
1.45405 -0.331962  0
1.61131 -0.2207  0
1.74523 0.0205939  0
1.81817 0.341094  0
1.82816 0.710691  0
1.78986 1.11138  0
1.73006 1.50914  0
1.68817 1.75045  0
1.42365 0.509299  0
0.940433 0.258309  0
0.597534 0.197942  0
0.419163 0.106212  0
0.297201 0.00605095  0
0.197261 -0.0507695  0
0.139877 -0.00493796  0
0.139995 -0.0140674  0
0.148468 -0.0872225  0
0.135965 -0.121396  0
0.139418 -0.0933374  0
0.189528 0.00573275  0
0.294503 0.161324  0
0.478378 0.373901  0
0.647979 0.49669  0
0.878129 0.664175  0
1.02135 0.568583  0
1.13116 0.625205  0
1.22317 0.48457  0
1.255 0.490644  0
1.31058 0.394591  0
1.32424 0.377442  0
1.35796 0.316008  0
1.36841 0.287768  0
1.3877 0.24338  0
1.39509 0.211526  0
1.40464 0.175353  0
1.40849 0.14397  0
1.41219 0.112208  0
1.41346 0.0823372  0
1.41438 0.0527553  0
1.41453 0.0242884  0
1.41461 -5.57172e-06  0
1.00078 -0.0226444  0
1.00385 -0.0677922  0
1.01034 -0.114783  0
1.0216 -0.165299  0
1.04016 -0.220764  0
1.06998 -0.282083  0
1.1171 -0.349116  0
1.19061 -0.419062  0
1.30349 -0.481724  0
1.46996 -0.506912  0
1.68715 -0.420197  0
1.8861 -0.112783  0
2.00999 0.277633  0
2.07155 0.702606  0
2.09196 1.13736  0
2.1143 1.52062  0
2.17589 1.71927  0
2.08314 1.15329  0
1.74414 0.720916  0
1.38656 0.464672  0
1.10294 0.301477  0
0.872887 0.162803  0
0.689735 0.0755703  0
0.556948 0.0394735  0
0.476141 0.0033232  0
0.415731 -0.0521444  0
0.361188 -0.0894288  0
0.321106 -0.0886746  0
0.311931 -0.0398655  0
0.352416 0.0614624  0
0.445444 0.196858  0
0.598451 0.351125  0
0.751734 0.426306  0
0.913502 0.501456  0
1.0364 0.459619  0
1.12745 0.4671  0
1.20258 0.401158  0
1.24763 0.383453  0
1.29249 0.330058  0
1.31868 0.303481  0
1.34642 0.262101  0
1.36363 0.232552  0
1.38058 0.19801  0
1.39161 0.168299  0
1.40128 0.137505  0
1.40758 0.108666  0
1.41242 0.0797698  0
1.41531 0.0515111  0
1.41698 0.0237045  0
1.41747 1.75106e-05  0
1.00015 -0.0235825  0
1.00068 -0.0704523  0
1.00209 -0.120009  0
1.00575 -0.174998  0
1.01416 -0.238037  0
1.03115 -0.311622  0
1.06253 -0.39807  0
1.11754 -0.498632  0
1.21163 -0.609127  0
1.36897 -0.703324  0
1.60798 -0.679983  0
1.82422 -0.268177  0
1.96045 0.172896  0
2.0755 0.630732  0
2.1535 1.11083  0
2.20389 1.47443  0
2.28115 1.6266  0
2.25702 1.36285  0
2.08953 1.01784  0
1.84885 0.766012  0
1.59832 0.534285  0
1.37706 0.381311  0
1.17176 0.245507  0
1.00934 0.164746  0
0.876724 0.0914749  0
0.767772 0.0290665  0
0.670409 -0.0187349  0
0.590399 -0.0392753  0
0.536345 -0.026037  0
0.518792 0.0247029  0
0.548376 0.111004  0
0.622932 0.209416  0
0.735715 0.301951  0
0.853286 0.346473  0
0.966775 0.378211  0
1.06141 0.362826  0
1.13621 0.355507  0
1.19798 0.322286  0
1.24372 0.300624  0
1.28315 0.267294  0
1.31248 0.241218  0
1.33806 0.210648  0
1.35739 0.183625  0
1.37377 0.155277  0
1.38611 0.12852  0
1.39594 0.101512  0
1.40297 0.0750517  0
1.40786 0.0484544  0
1.41057 0.0223752  0
1.41144 -5.97774e-06  0
0.999214 -0.0229498  0
0.996015 -0.0684159  0
0.990003 -0.117436  0
0.982523 -0.173752  0
0.97575 -0.240924  0
0.972541 -0.322517  0
0.97642 -0.422428  0
0.992054 -0.544923  0
1.027 -0.691875  0
1.09557 -0.84648  0
1.21747 -0.897738  0
1.26436 -0.171753  0
1.29039 0.0559955  0
1.52038 0.288293  0
1.76219 1.01917  0
1.89905 1.37886  0
2.02256 1.52139  0
2.11408 1.40067  0
2.07555 1.18603  0
1.97054 0.943522  0
1.82547 0.752373  0
1.65148 0.558479  0
1.49741 0.427701  0
1.33926 0.303128  0
1.20936 0.215602  0
1.08736 0.135895  0
0.980919 0.0782404  0
0.885047 0.0396316  0
0.806727 0.0274299  0
0.752763 0.0427531  0
0.731832 0.0843005  0
0.749412 0.143983  0