# vtk DataFile Version 4.0
Nusif VTK output
ASCII
DATASET STRUCTURED_POINTS
DIMENSIONS 500 50 1
ORIGIN 0 0 0 
SPACING 0.03 0.03 1
POINT_DATA 25000 

VECTORS velocity double
0 0  0
0 0  0
0 0  0
0 0  0
0 0  0
0 0  0
0 0  0
0 0  0
0 0  0
0 0  0
0 0  0
0 0  0
0 0  0
0 0  0
0 0  0
0 0  0
0 0  0
0 0  0
0 0  0
0 0  0
0 0  0
0 0  0
0 0  0
0 0  0
0 0  0
0 0  0
0 0  0
0 0  0
0 0  0
0 0  0
0 0  0
0 0  0
0 0  0
0 0  0
0 0  0
0 0  0
0 0  0
0 0  0
0 0  0
0 0  0
0 0  0
0 0  0
0 0  0
0 0  0
0 0  0
0 0  0
0 0  0
0 0  0
0 0  0
0 0  0
0 0  0
0 0  0
0 0  0
0 0  0
0 0  0
0 0  0
0 0  0
0 0  0
0 0  0
0 0  0
0 0  0
0 0  0
0 0  0
0 0  0
0 0  0
0 0  0
0 0  0
0 0  0
0 0  0
0 0  0
0 0  0
0 0  0
0 0  0
0 0  0
0 0  0
0 0  0
0 0  0
0 0  0
0 0  0
0 0  0
0 0  0
0 0  0
0 0  0
0 0  0
0 0  0
0 0  0
0 0  0
0 0  0
0 0  0
0 0  0
0 0  0
0 0  0
0 0  0
0 0  0
0 0  0
0 0  0
0 0  0
0 0  0
0 0  0
0 0  0
0 0  0
0 0  0
0 0  0
0 0  0
0 0  0
0 0  0
0 0  0
0 0  0
0 0  0
0 0  0
0 0  0
0 0  0
0 0  0
0 0  0
0 0  0
0 0  0
0 0  0
0 0  0
0 0  0
0 0  0
0 0  0
0 0  0
0 0  0
0 0  0
0 0  0
0 0  0
0 0  0
0 0  0
0 0  0
0 0  0
0 0  0
0 0  0
0 0  0
0 0  0
0 0  0
0 0  0
0 0  0
0 0  0
0 0  0
0 0  0
0 0  0
0 0  0
0 0  0
0 0  0
0 0  0
0 0  0
0 0  0
0 0  0
0 0  0
0 0  0
0 0  0
0 0  0
0 0  0
0 0  0
0 0  0
0 0  0
0 0  0
0 0  0
0 0  0
0 0  0
0 0  0
0 0  0
0 0  0
0 0  0
0 0  0
0 0  0
0 0  0
0 0  0
0 0  0
0 0  0
0 0  0
0 0  0
0 0  0
0 0  0
0 0  0
0 0  0
0 0  0
0 0  0
0 0  0
0 0  0
0 0  0
0 0  0
0 0  0
0 0  0
0 0  0
0 0  0
0 0  0
0 0  0
0 0  0
0 0  0
0 0  0
0 0  0
0 0  0
0 0  0
0 0  0
0 0  0
0 0  0
0 0  0
0 0  0
0 0  0
0 0  0
0 0  0
0 0  0
0 0  0
0 0  0
0 0  0
0 0  0
0 0  0
0 0  0
0 0  0
0 0  0
0 0  0
0 0  0
0 0  0
0 0  0
0 0  0
0 0  0
0 0  0
0 0  0
0 0  0
0 0  0
0 0  0
0 0  0
0 0  0
0 0  0
0 0  0
0 0  0
0 0  0
0 0  0
0 0  0
0 0  0
0 0  0
0 0  0
0 0  0
0 0  0
0 0  0
0 0  0
0 0  0
0 0  0
0 0  0
0 0  0
0 0  0
0 0  0
0 0  0
0 0  0
0 0  0
0 0  0
0 0  0
0 0  0
0 -5.07024e-05  0
-5.07024e-05 5.07024e-05  0
-0.000238096 0.000136691  0
-0.000537809 0.000163021  0
-0.000842274 0.000141445  0
-0.00107198 8.82663e-05  0
-0.00117629 1.60418e-05  0
-0.00112603 -6.63059e-05  0
-0.000907328 -0.000152395  0
-0.000517355 -0.000237579  0
3.86899e-05 -0.000318466  0
0.000749786 -0.00039263  0
0.00160084 -0.000458425  0
0.00257412 -0.000514849  0
0.00365039 -0.000561428  0
0.00480994 -0.000598114  0
0.00603324 -0.000625192  0
0.00730163 -0.000643199  0
0.00859768 -0.000652846  0
0.00990548 -0.000654958  0
0.0112109 -0.000650418  0
0.0125014 -0.000640128  0
0.0137665 -0.000624976  0
0.0149973 -0.000605807  0
0.0161865 -0.000583415  0
0.0173285 -0.000558524  0
0.0184188 -0.000531788  0
0.0194543 -0.000503786  0
0.0204332 -0.000475024  0
0.0213541 -0.000445937  0
0.0222169 -0.000416895  0
0.023022 -0.000388208  0
0.0237704 -0.000360129  0
0.0244634 -0.000332863  0
0.0251028 -0.000306569  0
0.0256907 -0.00028137  0
0.0262295 -0.000257355  0
0.0267214 -0.000234584  0
0.0271691 -0.000213091  0
0.0275751 -0.000192893  0
0.027942 -0.000173988  0
0.0282723 -0.000156358  0
0.0285686 -0.000139978  0
0.0288334 -0.00012481  0
0.029069 -0.000110813  0
0.0292778 -9.79357e-05  0
0.0294619 -8.61276e-05  0
0.0296233 -7.53336e-05  0
0.0297641 -6.54974e-05  0
0.0298862 -5.65622e-05  0
0.0299912 -4.84714e-05  0
0.0300809 -4.11691e-05  0
0.0301567 -3.46007e-05  0
0.03022 -2.87131e-05  0
0.0302721 -2.34551e-05  0
0.0303144 -1.87776e-05  0
0.0303478 -1.46338e-05  0
0.0303734 -1.09792e-05  0
0.0303921 -7.77181e-06  0
0.0304049 -4.97204e-06  0
0.0304124 -2.54272e-06  0
0.0304154 -4.4903e-07  0
0.0304145 1.34167e-06  0
0.0304103 2.85985e-06  0
0.0304033 4.13316e-06  0
0.030394 5.18726e-06  0
0.0303828 6.04588e-06  0
0.03037 6.73086e-06  0
0.030356 7.26229e-06  0
0.0303411 7.6585e-06  0
0.0303255 7.93626e-06  0
0.0303094 8.11077e-06  0
0.0302931 8.19585e-06  0
0.0302767 8.20398e-06  0
0.0302604 8.14643e-06  0
0.0302442 8.0333e-06  0
0.0302283 7.87368e-06  0
0.0302127 7.67566e-06  0
0.0301976 7.44646e-06  0
0.030183 7.19246e-06  0
0.0301689 6.91931e-06  0
0.0301553 6.63199e-06  0
0.0301423 6.33483e-06  0
0.03013 6.03163e-06  0
0.0301182 5.72565e-06  0
0.0301071 5.41971e-06  0
0.0300965 5.1162e-06  0
0.0300866 4.81716e-06  0
0.0300773 4.52427e-06  0
0.0300685 4.23894e-06  0
0.0300603 3.96228e-06  0
0.0300526 3.6952e-06  0
0.0300455 3.43839e-06  0
0.0300389 3.19234e-06  0
0.0300327 2.95741e-06  0
0.030027 2.73381e-06  0
0.0300218 2.52162e-06  0
0.0300169 2.32084e-06  0
0.0300125 2.13135e-06  0
0.0300084 1.95299e-06  0
0.0300047 1.78552e-06  0
0.0300012 1.62866e-06  0
0.0299981 1.48206e-06  0
0.0299953 1.34538e-06  0
0.0299927 1.21823e-06  0
0.0299904 1.1002e-06  0
0.0299883 9.9088e-07  0
0.0299864 8.89847e-07  0
0.0299848 7.96676e-07  0
0.0299833 7.1094e-07  0
0.0299819 6.3222e-07  0
0.0299807 5.60102e-07  0
0.0299797 4.94182e-07  0
0.0299787 4.34066e-07  0
0.0299779 3.79372e-07  0
0.0299772 3.29732e-07  0
0.0299766 2.84794e-07  0
0.0299761 2.44219e-07  0
0.0299756 2.07684e-07  0
0.0299752 1.74882e-07  0
0.0299749 1.45522e-07  0
0.0299747 1.19329e-07  0
0.0299744 9.60428e-08  0
0.0299743 7.54191e-08  0
0.0299741 5.72285e-08  0
0.029974 4.12564e-08  0
0.029974 2.73022e-08  0
0.0299739 1.51788e-08  0
0.0299739 4.71258e-09  0
0.0299739 -4.25726e-09  0
0.0299739 -1.18778e-08  0
0.0299739 -1.82878e-08  0
0.029974 -2.36156e-08  0
0.029974 -2.79784e-08  0
0.0299741 -3.14839e-08  0
0.0299742 -3.42304e-08  0
0.0299742 -3.63075e-08  0
0.0299743 -3.77972e-08  0
0.0299744 -3.87738e-08  0
0.0299745 -3.93049e-08  0
0.0299745 -3.94515e-08  0
0.0299746 -3.92687e-08  0
0.0299747 -3.88063e-08  0
0.0299748 -3.81088e-08  0
0.0299749 -3.72161e-08  0
0.0299749 -3.61637e-08  0
0.029975 -3.49833e-08  0
0.0299751 -3.37028e-08  0
0.0299751 -3.23468e-08  0
0.0299752 -3.09371e-08  0
0.0299753 -2.94925e-08  0
0.0299753 -2.80295e-08  0
0.0299754 -2.6562e-08  0
0.0299754 -2.51023e-08  0
0.0299755 -2.36606e-08  0
0.0299755 -2.22455e-08  0
0.0299756 -2.08642e-08  0
0.0299756 -1.95225e-08  0
0.0299756 -1.8225e-08  0
0.0299757 -1.69755e-08  0
0.0299757 -1.57766e-08  0
0.0299757 -1.46303e-08  0
0.0299758 -1.35378e-08  0
0.0299758 -1.24998e-08  0
0.0299758 -1.15164e-08  0
0.0299758 -1.05872e-08  0
0.0299759 -9.71159e-09  0
0.0299759 -8.88851e-09  0
0.0299759 -8.1167e-09  0
0.0299759 -7.39466e-09  0
0.0299759 -6.72074e-09  0
0.0299759 -6.09314e-09  0
0.0299759 -5.50997e-09  0
0.029976 -4.96927e-09  0
0.029976 -4.46904e-09  0
0.029976 -4.00724e-09  0
0.029976 -3.58186e-09  0
0.029976 -3.19087e-09  0
0.029976 -2.83228e-09  0
0.029976 -2.50414e-09  0
0.029976 -2.20455e-09  0
0.029976 -1.93166e-09  0
0.029976 -1.68369e-09  0
0.029976 -1.45893e-09  0
0.029976 -1.25572e-09  0
0.029976 -1.0725e-09  0
0.029976 -9.07755e-10  0
0.029976 -7.60075e-10  0
0.029976 -6.2811e-10  0
0.029976 -5.10585e-10  0
0.029976 -4.06303e-10  0
0.029976 -3.14137e-10  0
0.029976 -2.33031e-10  0
0.029976 -1.62e-10  0
0.029976 -1.00121e-10  0
0.029976 -4.65379e-11  0
0.029976 -4.53451e-13  0
0.029976 3.88778e-11  0
0.029976 7.21425e-11  0
0.029976 9.99641e-11  0
0.029976 1.22919e-10  0
0.029976 1.4154e-10  0
0.029976 1.56313e-10  0
0.029976 1.67686e-10  0
0.029976 1.76066e-10  0
0.029976 1.81826e-10  0
0.029976 1.85301e-10  0
0.029976 1.86798e-10  0
0.029976 1.86592e-10  0
0.029976 1.84932e-10  0
0.029976 1.8204e-10  0
0.029976 1.78116e-10  0
0.029976 1.73339e-10  0
0.029976 1.67866e-10  0
0.029976 1.61838e-10  0
0.029976 1.55379e-10  0
0.029976 1.48597e-10  0
0.029976 1.41587e-10  0
0.029976 1.34431e-10  0
0.029976 1.27202e-10  0
0.029976 1.19959e-10  0
0.029976 1.12755e-10  0
0.029976 1.05634e-10  0
0.029976 9.86311e-11  0
0.029976 9.17775e-11  0
0.029976 8.50972e-11  0
0.029976 7.86095e-11  0
0.029976 7.23294e-11  0
0.029976 6.62681e-11  0
0.029976 6.0434e-11  0
0.029976 5.4833e-11  0
0.029976 4.94688e-11  0
0.029976 4.43438e-11  0
0.029976 3.94598e-11  0
0.029976 3.48178e-11  0
0.029976 3.0419e-11  0
0.029976 2.62655e-11  0
0.029976 2.23605e-11  0
0.029976 1.87087e-11  0
0.029976 1.53178e-11  0
0.029976 1.21983e-11  0
0.029976 9.36416e-12  0
0.029976 6.8335e-12  0
0.029976 4.62894e-12  0
0.029976 2.77757e-12  0
0.029976 1.30988e-12  0
0.029976 2.56611e-13  0
0.029976 -3.58475e-13  0
0.029976 -5.37189e-13  0
0.029976 -3.46038e-13  0
0.029976 -3.26571e-17  0
0 0  0
0 0  0
0 0  0
0 0  0
0 0  0
0 0  0
0 0  0
0 0  0
0 0  0
0 0  0
0 0  0
0 0  0
0 0  0
0 0  0
0 0  0
0 0  0
0 0  0
0 0  0
0 0  0
0 0  0
0 0  0
0 0  0
0 0  0
0 0  0
0 0  0
0 0  0
0 0  0
0 0  0
0 0  0
0 0  0
0 0  0
0 0  0
0 0  0
0 0  0
0 0  0
0 0  0
0 0  0
0 0  0
0 0  0
0 0  0
0 0  0
0 0  0
0 0  0
0 0  0
0 0  0
0 0  0
0 0  0
0 0  0
0 0  0
0 0  0
0 0  0
0 0  0
0 0  0
0 0  0
0 0  0
0 0  0
0 0  0
0 0  0
0 0  0
0 0  0
0 0  0
0 0  0
0 0  0
0 0  0
0 0  0
0 0  0
0 0  0
0 0  0
0 0  0
0 0  0
0 0  0
0 0  0
0 0  0
0 0  0
0 0  0
0 0  0
0 0  0
0 0  0
0 0  0
0 0  0
0 0  0
0 0  0
0 0  0
0 0  0
0 0  0
0 0  0
0 0  0
0 0  0
0 0  0
0 0  0
0 0  0
0 0  0
0 0  0
0 0  0
0 0  0
0 0  0
0 0  0
0 0  0
0 0  0
0 0  0
0 0  0
0 0  0
0 0  0
0 0  0
0 0  0
0 0  0
0 0  0
0 0  0
0 0  0
0 0  0
0 0  0
0 0  0
0 0  0
0 0  0
0 0  0
0 0  0
0 0  0
0 0  0
0 0  0
0 0  0
0 0  0
0 0  0
0 0  0
0 0  0
0 0  0
0 0  0
0 0  0
0 0  0
0 0  0
0 0  0
0 0  0
0 0  0
0 0  0
0 0  0
0 0  0
0 0  0
0 0  0
0 0  0
0 0  0
0 0  0
0 0  0
0 0  0
0 0  0
0 0  0
0 0  0
0 0  0
0 0  0
0 0  0
0 0  0
0 0  0
0 0  0
0 0  0
0 0  0
0 0  0
0 0  0
0 0  0
0 0  0
0 0  0
0 0  0
0 0  0
0 0  0
0 0  0
0 0  0
0 0  0
0 0  0
0 0  0
0 0  0
0 0  0
0 0  0
0 0  0
0 0  0
0 0  0
0 0  0
0 0  0
0 0  0
0 0  0
0 0  0
0 0  0
0 0  0
0 0  0
0 0  0
0 0  0
0 0  0
0 0  0
0 0  0
0 0  0
0 0  0
0 0  0
0 0  0
0 0  0
0 0  0
0 0  0
0 0  0
0 0  0
0 0  0
0 0  0
0 0  0
0 0  0
0 0  0
0 0  0
0 0  0
0 0  0
0 0  0
0 0  0
0 0  0
0 0  0
0 0  0
0 0  0
0 0  0
0 0  0
0 0  0
0 0  0
0 0  0
0 0  0
0 0  0
0 0  0
0 0  0
0 0  0
0 0  0
0 0  0
0 0  0
0 0  0
0 0  0
0 0  0
0 0  0
0 0  0
0 0  0
0 0  0
0 0  0
0 0  0
0 0  0
0 0  0
0 0  0
0 0  0
0 0  0
0 0  0
0 0  0
0 0  0
0 0  0
0 0  0
0 0  0
0 0  0
0 0  0
0 0  0
0 0  0
0 0  0
0 0  0
0 0  0
0 0  0
0 -0.000238159  0
-0.000136754 0.000238159  0
-0.000538612 0.000538487  0
-0.0010874 0.000609727  0
-0.00158513 0.000496934  0
-0.00187821 0.000255568  0
-0.00185724 -6.7921e-05  0
-0.00145225 -0.000437599  0
-0.000625992 -0.000826061  0
0.000632592 -0.00121247  0
0.00231413 -0.00158116  0
0.00439378 -0.00192068  0
0.00683547 -0.00222311  0
0.00959549 -0.00248346  0
0.0126256 -0.00269921  0
0.0158756 -0.00286982  0
0.0192951 -0.00299636  0
0.0228357 -0.00308105  0
0.0264517 -0.003127  0
0.030101 -0.00313787  0
0.0337457 -0.00311763  0
0.0373526 -0.00307036  0
0.0408929 -0.00300012  0
0.0443423 -0.00291081  0
0.0476807 -0.00280608  0
0.0508922 -0.0026893  0
0.0539644 -0.00256353  0
0.0568883 -0.00243148  0
0.0596577 -0.00229554  0
0.0622691 -0.00215778  0
0.0647212 -0.00201996  0
0.0670145 -0.00188356  0
0.0691512 -0.00174981  0
0.0711347 -0.00161969  0
0.0729696 -0.001494  0
0.074661 -0.00137334  0
0.0762151 -0.00125816  0
0.0776381 -0.00114876  0
0.0789369 -0.00104534  0
0.0801182 -0.000947998  0
0.0811892 -0.000856737  0
0.0821568 -0.000771503  0
0.0830278 -0.000692184  0
0.083809 -0.000618621  0
0.084507 -0.000550623  0
0.0851281 -0.000487969  0
0.0856784 -0.000430422  0
0.0861636 -0.000377729  0
0.0865893 -0.000329629  0
0.0869607 -0.000285858  0
0.0872826 -0.000246151  0
0.0875597 -0.000210245  0
0.0877963 -0.000177883  0
0.0879964 -0.000148814  0
0.0881636 -0.000122796  0
0.0883016 -9.95947e-05  0
0.0884133 -7.89878e-05  0
0.0885019 -6.0763e-05  0
0.0885698 -4.47192e-05  0
0.0886197 -3.06667e-05  0
0.0886538 -1.8427e-05  0
0.0886741 -7.83277e-06  0
0.0886824 1.27265e-06  0
0.0886805 9.03592e-06  0
0.0886699 1.55919e-05  0
0.0886519 2.10648e-05  0
0.0886277 2.55697e-05  0
0.0885985 2.92128e-05  0
0.0885651 3.20915e-05  0
0.0885286 3.42953e-05  0
0.0884896 3.5906e-05  0
0.0884488 3.69978e-05  0
0.0884068 3.76386e-05  0
0.088364 3.78894e-05  0
0.088321 3.78058e-05  0
0.0882781 3.74375e-05  0
0.0882357 3.68292e-05  0
0.0881939 3.60212e-05  0
0.0881531 3.5049e-05  0
0.0881134 3.39446e-05  0
0.0880749 3.2736e-05  0
0.0880379 3.14481e-05  0
0.0880022 3.01027e-05  0
0.0879682 2.87188e-05  0
0.0879356 2.73129e-05  0
0.0879047 2.58993e-05  0
0.0878754 2.44903e-05  0
0.0878477 2.30962e-05  0
0.0878215 2.17259e-05  0
0.087797 2.03865e-05  0
0.0877739 1.9084e-05  0
0.0877523 1.78233e-05  0
0.0877321 1.6608e-05  0
0.0877133 1.54411e-05  0
0.0876959 1.43245e-05  0
0.0876797 1.32597e-05  0
0.0876647 1.22473e-05  0
0.0876508 1.12877e-05  0
0.0876381 1.03805e-05  0
0.0876263 9.52525e-06  0
0.0876156 8.72095e-06  0
0.0876057 7.96642e-06  0
0.0875967 7.26027e-06  0
0.0875885 6.60092e-06  0
0.087581 5.98668e-06  0
0.0875743 5.41572e-06  0
0.0875681 4.88616e-06  0
0.0875626 4.39606e-06  0
0.0875577 3.94348e-06  0
0.0875532 3.52644e-06  0
0.0875492 3.143e-06  0
0.0875457 2.79122e-06  0
0.0875425 2.46921e-06  0
0.0875397 2.17512e-06  0
0.0875373 1.90715e-06  0
0.0875351 1.66357e-06  0
0.0875332 1.4427e-06  0
0.0875316 1.24294e-06  0
0.0875302 1.06276e-06  0
0.087529 9.00683e-07  0
0.087528 7.5533e-07  0
0.0875271 6.25382e-07  0
0.0875264 5.09595e-07  0
0.0875259 4.06798e-07  0
0.0875254 3.15888e-07  0
0.0875251 2.35832e-07  0
0.0875248 1.65664e-07  0
0.0875246 1.04482e-07  0
0.0875245 5.14467e-08  0
0.0875244 5.77882e-09  0
0.0875244 -3.32401e-08  0
0.0875245 -6.62763e-08  0
0.0875245 -9.39523e-08  0
0.0875247 -1.16839e-07  0
0.0875248 -1.35462e-07  0
0.0875249 -1.50299e-07  0
0.0875251 -1.6179e-07  0
0.0875253 -1.70336e-07  0
0.0875255 -1.763e-07  0
0.0875257 -1.80016e-07  0
0.0875259 -1.81782e-07  0
0.0875261 -1.81871e-07  0
0.0875263 -1.80528e-07  0
0.0875265 -1.77973e-07  0
0.0875267 -1.74403e-07  0
0.0875269 -1.69995e-07  0
0.0875271 -1.64906e-07  0
0.0875273 -1.59275e-07  0
0.0875275 -1.53227e-07  0
0.0875276 -1.46869e-07  0
0.0875278 -1.40296e-07  0
0.087528 -1.33592e-07  0
0.0875281 -1.26827e-07  0
0.0875283 -1.20064e-07  0
0.0875284 -1.13355e-07  0
0.0875285 -1.06745e-07  0
0.0875286 -1.0027e-07  0
0.0875288 -9.39613e-08  0
0.0875289 -8.7844e-08  0
0.087529 -8.19377e-08  0
0.0875291 -7.62575e-08  0
0.0875291 -7.08147e-08  0
0.0875292 -6.5617e-08  0
0.0875293 -6.06689e-08  0
0.0875294 -5.59725e-08  0
0.0875294 -5.15277e-08  0
0.0875295 -4.73322e-08  0
0.0875295 -4.33821e-08  0
0.0875296 -3.96725e-08  0
0.0875296 -3.61969e-08  0
0.0875297 -3.29483e-08  0
0.0875297 -2.99186e-08  0
0.0875297 -2.70995e-08  0
0.0875298 -2.44821e-08  0
0.0875298 -2.20573e-08  0
0.0875298 -1.98157e-08  0
0.0875299 -1.7748e-08  0
0.0875299 -1.58448e-08  0
0.0875299 -1.40969e-08  0
0.0875299 -1.24952e-08  0
0.0875299 -1.10307e-08  0
0.0875299 -9.69473e-09  0
0.0875299 -8.47893e-09  0
0.08753 -7.37515e-09  0
0.08753 -6.37558e-09  0
0.08753 -5.47276e-09  0
0.08753 -4.65955e-09  0
0.08753 -3.92916e-09  0
0.08753 -3.27517e-09  0
0.08753 -2.69148e-09  0
0.08753 -2.17234e-09  0
0.08753 -1.71235e-09  0
0.08753 -1.30643e-09  0
0.08753 -9.49841e-10  0
0.08753 -6.38129e-10  0
0.08753 -3.6716e-10  0
0.08753 -1.33078e-10  0
0.08753 6.77023e-11  0
0.08753 2.38519e-10  0
0.08753 3.82417e-10  0
0.08753 5.022e-10  0
0.08753 6.00456e-10  0
0.08753 6.79561e-10  0
0.08753 7.41695e-10  0
0.08753 7.88852e-10  0
0.08753 8.2285e-10  0
0.08753 8.4534e-10  0
0.08753 8.57824e-10  0
0.08753 8.61657e-10  0
0.08753 8.58065e-10  0
0.08753 8.48147e-10  0
0.08753 8.32892e-10  0
0.08753 8.13183e-10  0
0.08753 7.89806e-10  0
0.08753 7.63462e-10  0
0.08753 7.34768e-10  0
0.08753 7.04268e-10  0
0.08753 6.72441e-10  0
0.08753 6.39701e-10  0
0.08753 6.06411e-10  0
0.08753 5.7288e-10  0
0.08753 5.39375e-10  0
0.08753 5.06121e-10  0
0.08753 4.73309e-10  0
0.08753 4.41095e-10  0
0.08753 4.09608e-10  0
0.08753 3.78955e-10  0
0.08753 3.49216e-10  0
0.08753 3.20458e-10  0
0.08753 2.92729e-10  0
0.08753 2.66065e-10  0
0.08753 2.40495e-10  0
0.08753 2.16035e-10  0
0.08753 1.92701e-10  0
0.08753 1.70505e-10  0
0.08753 1.49456e-10  0
0.08753 1.2957e-10  0
0.08753 1.10864e-10  0
0.08753 9.33656e-11  0
0.08753 7.71099e-11  0
0.08753 6.21458e-11  0
0.08753 4.85361e-11  0
0.08753 3.63597e-11  0
0.08753 2.57121e-11  0
0.08753 1.67035e-11  0
0.08753 9.45181e-12  0
0.08753 4.06682e-12  0
0.08753 6.17471e-13  0
0.08753 -9.3719e-13  0
0.08753 -8.82062e-13  0
0.08753 -6.85613e-18  0
0 0  0
0 0  0
0 0  0
0 0  0
0 0  0
0 0  0
0 0  0
0 0  0
0 0  0
0 0  0
0 0  0
0 0  0
0 0  0
0 0  0
0 0  0
0 0  0
0 0  0
0 0  0
0 0  0
0 0  0
0 0  0
0 0  0
0 0  0
0 0  0
0 0  0
0 0  0
0 0  0
0 0  0
0 0  0
0 0  0
0 0  0
0 0  0
0 0  0
0 0  0
0 0  0
0 0  0
0 0  0
0 0  0
0 0  0
0 0  0
0 0  0
0 0  0
0 0  0
0 0  0
0 0  0
0 0  0
0 0  0
0 0  0
0 0  0
0 0  0
0 0  0
0 0  0
0 0  0
0 0  0
0 0  0
0 0  0
0 0  0
0 0  0
0 0  0
0 0  0
0 0  0
0 0  0
0 0  0
0 0  0
0 0  0
0 0  0
0 0  0
0 0  0
0 0  0
0 0  0
0 0  0
0 0  0
0 0  0
0 0  0
0 0  0
0 0  0
0 0  0
0 0  0
0 0  0
0 0  0
0 0  0
0 0  0
0 0  0
0 0  0
0 0  0
0 0  0
0 0  0
0 0  0
0 0  0
0 0  0
0 0  0
0 0  0
0 0  0
0 0  0
0 0  0
0 0  0
0 0  0
0 0  0
0 0  0
0 0  0
0 0  0
0 0  0
0 0  0
0 0  0
0 0  0
0 0  0
0 0  0
0 0  0
0 0  0
0 0  0
0 0  0
0 0  0
0 0  0
0 0  0
0 0  0
0 0  0
0 0  0
0 0  0
0 0  0
0 0  0
0 0  0
0 0  0
0 0  0
0 0  0
0 0  0
0 0  0
0 0  0
0 0  0
0 0  0
0 0  0
0 0  0
0 0  0
0 0  0
0 0  0
0 0  0
0 0  0
0 0  0
0 0  0
0 0  0
0 0  0
0 0  0
0 0  0
0 0  0
0 0  0
0 0  0
0 0  0
0 0  0
0 0  0
0 0  0
0 0  0
0 0  0
0 0  0
0 0  0
0 0  0
0 0  0
0 0  0
0 0  0
0 0  0
0 0  0
0 0  0
0 0  0
0 0  0
0 0  0
0 0  0
0 0  0
0 0  0
0 0  0
0 0  0
0 0  0
0 0  0
0 0  0
0 0  0
0 0  0
0 0  0
0 0  0
0 0  0
0 0  0
0 0  0
0 0  0
0 0  0
0 0  0
0 0  0
0 0  0
0 0  0
0 0  0
0 0  0
0 0  0
0 0  0
0 0  0
0 0  0
0 0  0
0 0  0
0 0  0
0 0  0
0 0  0
0 0  0
0 0  0
0 0  0
0 0  0
0 0  0
0 0  0
0 0  0
0 0  0
0 0  0
0 0  0
0 0  0
0 0  0
0 0  0
0 0  0
0 0  0
0 0  0
0 0  0
0 0  0
0 0  0
0 0  0
0 0  0
0 0  0
0 0  0
0 0  0
0 0  0
0 0  0
0 0  0
0 0  0
0 0  0
0 0  0
0 0  0
0 0  0
0 0  0
0 0  0
0 0  0
0 0  0
0 0  0
0 0  0
0 0  0
0 0  0
0 0  0
0 0  0
0 0  0
0 0  0
0 0  0
0 0  0
0 0  0
0 0  0
0 0  0
0 0  0
0 0  0
0 0  0
0 0  0
0 0  0
0 -0.000541885  0
-0.000166972 0.000541885  0
-0.000626708 0.00109636  0
-0.00119453 0.00116847  0
-0.00161723 0.000858614  0
-0.00170251 0.000272253  0
-0.00131017 -0.000497915  0
-0.000347315 -0.00137545  0
0.0012372 -0.00229898  0
0.00345914 -0.00322007  0
0.00630546 -0.00410142  0
0.0097406 -0.00491522  0
0.0137122 -0.00564188  0
0.0181564 -0.00626887  0
0.023002 -0.00678953  0
0.0281746 -0.00720209  0
0.0335996 -0.00750862  0
0.0392044 -0.00771415  0
0.0449203 -0.00782583  0
0.0506843 -0.00785224  0
0.056439 -0.00780276  0
0.062134 -0.00768715  0
0.0677255 -0.0075151  0
0.0731763 -0.00729597  0
0.0784556 -0.00703863  0
0.0835385 -0.00675124  0
0.088406 -0.00644124  0
0.0930436 -0.00611527  0
0.0974417 -0.00577921  0
0.101594 -0.00543813  0
0.105499 -0.0050964  0
0.109156 -0.00475771  0
0.112569 -0.00442511  0
0.115742 -0.00410111  0
0.118682 -0.0037877  0
0.121398 -0.00348641  0
0.123897 -0.0031984  0
0.12619 -0.0029245  0
0.128287 -0.00266521  0
0.130198 -0.00242083  0
0.131935 -0.00219141  0
0.133507 -0.00197685  0
0.134926 -0.00177692  0
0.136202 -0.00159124  0
0.137346 -0.00141937  0
0.138366 -0.00126079  0
0.139273 -0.00111493  0
0.140076 -0.000981173  0
0.140783 -0.000858897  0
0.141402 -0.000747456  0
0.141942 -0.000646201  0
0.142409 -0.000554488  0
0.142811 -0.000471685  0
0.143153 -0.000397172  0
0.143441 -0.000330349  0
0.143682 -0.00027064  0
0.14388 -0.000217491  0
0.14404 -0.000170373  0
0.144165 -0.000128785  0
0.144261 -9.22551e-05  0
0.14433 -6.03356e-05  0
0.144377 -3.26079e-05  0
0.144403 -8.67964e-06  0
0.144412 1.18159e-05  0
0.144407 2.92204e-05  0
0.144388 4.38471e-05  0
0.144359 5.59862e-05  0
0.144321 6.59059e-05  0
0.144276 7.3853e-05  0
0.144225 8.00539e-05  0
0.14417 8.47159e-05  0
0.144111 8.80282e-05  0
0.144049 9.01628e-05  0
0.143986 9.1276e-05  0
0.143922 9.1509e-05  0
0.143857 9.09894e-05  0
0.143793 8.98319e-05  0
0.14373 8.81393e-05  0
0.143668 8.60037e-05  0
0.143607 8.35069e-05  0
0.143548 8.07217e-05  0
0.143491 7.77125e-05  0
0.143435 7.45357e-05  0
0.143383 7.1241e-05  0
0.143332 6.78716e-05  0
0.143284 6.44649e-05  0
0.143238 6.10532e-05  0
0.143195 5.7664e-05  0
0.143154 5.43206e-05  0
0.143115 5.10425e-05  0
0.143079 4.78458e-05  0
0.143045 4.47436e-05  0
0.143013 4.17464e-05  0
0.142983 3.88623e-05  0
0.142955 3.60972e-05  0
0.142929 3.34554e-05  0
0.142905 3.09394e-05  0
0.142883 2.85505e-05  0
0.142863 2.62887e-05  0
0.142844 2.41531e-05  0
0.142827 2.21419e-05  0
0.142811 2.02525e-05  0
0.142797 1.84819e-05  0
0.142783 1.68265e-05  0
0.142771 1.52823e-05  0
0.14276 1.38452e-05  0
0.14275 1.25106e-05  0
0.142741 1.12739e-05  0
0.142733 1.01304e-05  0
0.142726 9.07549e-06  0
0.142719 8.10432e-06  0
0.142714 7.21222e-06  0
0.142708 6.39457e-06  0
0.142704 5.64684e-06  0
0.1427 4.96461e-06  0
0.142696 4.34362e-06  0
0.142693 3.77974e-06  0
0.14269 3.269e-06  0
0.142688 2.80759e-06  0
0.142686 2.39188e-06  0
0.142684 2.01843e-06  0
0.142683 1.68395e-06  0
0.142681 1.38534e-06  0
0.14268 1.11968e-06  0
0.14268 8.84204e-07  0
0.142679 6.76329e-07  0
0.142678 4.93632e-07  0
0.142678 3.33847e-07  0
0.142678 1.94864e-07  0
0.142678 7.47201e-08  0
0.142678 -2.84037e-08  0
0.142678 -1.16185e-07  0
0.142678 -1.90191e-07  0
0.142678 -2.51865e-07  0
0.142678 -3.02537e-07  0
0.142678 -3.43424e-07  0
0.142678 -3.75641e-07  0
0.142679 -4.00207e-07  0
0.142679 -4.18052e-07  0
0.142679 -4.3002e-07  0
0.142679 -4.36879e-07  0
0.14268 -4.39324e-07  0
0.14268 -4.37982e-07  0
0.14268 -4.33419e-07  0
0.142681 -4.26141e-07  0
0.142681 -4.16604e-07  0
0.142681 -4.05213e-07  0
0.142682 -3.92328e-07  0
0.142682 -3.7827e-07  0
0.142682 -3.63319e-07  0
0.142682 -3.47723e-07  0
0.142683 -3.31699e-07  0
0.142683 -3.15434e-07  0
0.142683 -2.99091e-07  0
0.142683 -2.82809e-07  0
0.142684 -2.66706e-07  0
0.142684 -2.50881e-07  0
0.142684 -2.35417e-07  0
0.142684 -2.20383e-07  0
0.142684 -2.05832e-07  0
0.142684 -1.91807e-07  0
0.142685 -1.7834e-07  0
0.142685 -1.65456e-07  0
0.142685 -1.53168e-07  0
0.142685 -1.41487e-07  0
0.142685 -1.30413e-07  0
0.142685 -1.19944e-07  0
0.142685 -1.10074e-07  0
0.142685 -1.00791e-07  0
0.142685 -9.20819e-08  0
0.142685 -8.39309e-08  0
0.142685 -7.63194e-08  0
0.142685 -6.9228e-08  0
0.142686 -6.26356e-08  0
0.142686 -5.65206e-08  0
0.142686 -5.08608e-08  0
0.142686 -4.56335e-08  0
0.142686 -4.08163e-08  0
0.142686 -3.63865e-08  0
0.142686 -3.2322e-08  0
0.142686 -2.8601e-08  0
0.142686 -2.52021e-08  0
0.142686 -2.21047e-08  0
0.142686 -1.92888e-08  0
0.142686 -1.6735e-08  0
0.142686 -1.44249e-08  0
0.142686 -1.23408e-08  0
0.142686 -1.04659e-08  0
0.142686 -8.78412e-09  0
0.142686 -7.28029e-09  0
0.142686 -5.94009e-09  0
0.142686 -4.74999e-09  0
0.142686 -3.69729e-09  0
0.142686 -2.77009e-09  0
0.142686 -1.95725e-09  0
0.142686 -1.24835e-09  0
0.142686 -6.337e-10  0
0.142686 -1.0429e-10  0
0.142686 3.48267e-10  0
0.142686 7.31726e-10  0
0.142686 1.05317e-09  0
0.142686 1.31916e-09  0
0.142686 1.53571e-09  0
0.142686 1.70834e-09  0
0.142686 1.84214e-09  0
0.142686 1.94172e-09  0
0.142686 2.01128e-09  0
0.142686 2.05467e-09  0
0.142686 2.07534e-09  0
0.142686 2.07643e-09  0
0.142686 2.06075e-09  0
0.142686 2.03086e-09  0
0.142686 1.98901e-09  0
0.142686 1.93724e-09  0
0.142686 1.87736e-09  0
0.142686 1.81096e-09  0
0.142686 1.73946e-09  0
0.142686 1.6641e-09  0
0.142686 1.58597e-09  0
0.142686 1.50602e-09  0
0.142686 1.42505e-09  0
0.142686 1.34379e-09  0
0.142686 1.26282e-09  0
0.142686 1.18265e-09  0
0.142686 1.10371e-09  0
0.142686 1.02634e-09  0
0.142686 9.50851e-10  0
0.142686 8.7746e-10  0
0.142686 8.06354e-10  0
0.142686 7.37679e-10  0
0.142686 6.71547e-10  0
0.142686 6.0804e-10  0
0.142686 5.47224e-10  0
0.142686 4.89147e-10  0
0.142686 4.33853e-10  0
0.142686 3.81381e-10  0
0.142686 3.31774e-10  0
0.142686 2.85086e-10  0
0.142686 2.41386e-10  0
0.142686 2.00764e-10  0
0.142686 1.63336e-10  0
0.142686 1.29249e-10  0
0.142686 9.86811e-11  0
0.142686 7.18428e-11  0
0.142686 4.89678e-11  0
0.142686 3.02951e-11  0
0.142686 1.60315e-11  0
0.142686 6.27926e-12  0
0.142686 9.04028e-13  0
0.142686 -6.98133e-13  0
0.142686 -8.51846e-17  0
0 0  0
0 0  0
0 0  0
0 0  0
0 0  0
0 0  0
0 0  0
0 0  0
0 0  0
0 0  0
0 0  0
0 0  0
0 0  0
0 0  0
0 0  0
0 0  0
0 0  0
0 0  0
0 0  0
0 0  0
0 0  0
0 0  0
0 0  0
0 0  0
0 0  0
0 0  0
0 0  0
0 0  0
0 0  0
0 0  0
0 0  0
0 0  0
0 0  0
0 0  0
0 0  0
0 0  0
0 0  0
0 0  0
0 0  0
0 0  0
0 0  0
0 0  0
0 0  0
0 0  0
0 0  0
0 0  0
0 0  0
0 0  0
0 0  0
0 0  0
0 0  0
0 0  0
0 0  0
0 0  0
0 0  0
0 0  0
0 0  0
0 0  0
0 0  0
0 0  0
0 0  0
0 0  0
0 0  0
0 0  0
0 0  0
0 0  0
0 0  0
0 0  0
0 0  0
0 0  0
0 0  0
0 0  0
0 0  0
0 0  0
0 0  0
0 0  0
0 0  0
0 0  0
0 0  0
0 0  0
0 0  0
0 0  0
0 0  0
0 0  0
0 0  0
0 0  0
0 0  0
0 0  0
0 0  0
0 0  0
0 0  0
0 0  0
0 0  0
0 0  0
0 0  0
0 0  0
0 0  0
0 0  0
0 0  0
0 0  0
0 0  0
0 0  0
0 0  0
0 0  0
0 0  0
0 0  0
0 0  0
0 0  0
0 0  0
0 0  0
0 0  0
0 0  0
0 0  0
0 0  0
0 0  0
0 0  0
0 0  0
0 0  0
0 0  0
0 0  0
0 0  0
0 0  0
0 0  0
0 0  0
0 0  0
0 0  0
0 0  0
0 0  0
0 0  0
0 0  0
0 0  0
0 0  0
0 0  0
0 0  0
0 0  0
0 0  0
0 0  0
0 0  0
0 0  0
0 0  0
0 0  0
0 0  0
0 0  0
0 0  0
0 0  0
0 0  0
0 0  0
0 0  0
0 0  0
0 0  0
0 0  0
0 0  0
0 0  0
0 0  0
0 0  0
0 0  0
0 0  0
0 0  0
0 0  0
0 0  0
0 0  0
0 0  0
0 0  0
0 0  0
0 0  0
0 0  0
0 0  0
0 0  0
0 0  0
0 0  0
0 0  0
0 0  0
0 0  0
0 0  0
0 0  0
0 0  0
0 0  0
0 0  0
0 0  0
0 0  0
0 0  0
0 0  0
0 0  0
0 0  0
0 0  0
0 0  0
0 0  0
0 0  0
0 0  0
0 0  0
0 0  0
0 0  0
0 0  0
0 0  0
0 0  0
0 0  0
0 0  0
0 0  0
0 0  0
0 0  0
0 0  0
0 0  0
0 0  0
0 0  0
0 0  0
0 0  0
0 0  0
0 0  0
0 0  0
0 0  0
0 0  0
0 0  0
0 0  0
0 0  0
0 0  0
0 0  0
0 0  0
0 0  0
0 0  0
0 0  0
0 0  0
0 0  0
0 0  0
0 0  0
0 0  0
0 0  0
0 0  0
0 0  0
0 0  0
0 0  0
0 0  0
0 0  0
0 0  0
0 0  0
0 0  0
0 0  0
0 0  0
0 0  0
0 0  0
0 0  0
0 0  0
0 0  0
0 0  0
0 0  0
0 0  0
0 0  0
0 0  0
0 0  0
0 0  0
0 -0.000864191  0
-0.000155334 0.000864191  0
-0.000555636 0.00163409  0
-0.000974879 0.0016178  0
-0.00113103 0.000988128  0
-0.000811154 -9.18513e-05  0
0.000139915 -0.00147722  0
0.00182511 -0.0030442  0
0.00430033 -0.00468996  0
0.00758051 -0.00633121  0
0.0116464 -0.00790249  0
0.0164515 -0.00935436  0
0.0219287 -0.0106516  0
0.0279967 -0.0117713  0
0.0345652 -0.0127012  0
0.0415399 -0.0134377  0
0.0488261 -0.0139841  0
0.0563317 -0.0143491  0
0.0639699 -0.0145451  0
0.0716604 -0.0145874  0
0.0793305 -0.0144925  0
0.0869159 -0.0142779  0
0.0943609 -0.0139608  0
0.101618 -0.0135581  0
0.108648 -0.0130856  0
0.115419 -0.0125581  0
0.121906 -0.0119889  0
0.128091 -0.0113901  0
0.133961 -0.0107723  0
0.139508 -0.0101448  0
0.144729 -0.00951561  0
0.149625 -0.00889141  0
0.154198 -0.00827785  0
0.158456 -0.00767954  0
0.162407 -0.00710019  0
0.16606 -0.00654268  0
0.169428 -0.00600919  0
0.172523 -0.00550126  0
0.175357 -0.00501993  0
0.177946 -0.00456576  0
0.180302 -0.00413893  0
0.182439 -0.00373932  0
0.184372 -0.0033665  0
0.186114 -0.00301988  0
0.187679 -0.00269865  0
0.189079 -0.00240191  0
0.190326 -0.00212864  0
0.191434 -0.00187774  0
0.192413 -0.00164807  0
0.193273 -0.00143848  0
0.194026 -0.00124778  0
0.194681 -0.00107481  0
0.195247 -0.000918406  0
0.195732 -0.000777439  0
0.196144 -0.000650811  0
0.19649 -0.000537462  0
0.196778 -0.000436373  0
0.197014 -0.000346572  0
0.197203 -0.000267135  0
0.19735 -0.000197187  0
0.197461 -0.000135901  0
0.19754 -8.25015e-05  0
0.197591 -3.6261e-05  0
0.197618 3.50045e-06  0
0.197624 3.74185e-05  0
0.197612 6.60792e-05  0
0.197585 9.00241e-05  0
0.197545 0.000109754  0
0.197494 0.00012573  0
0.197435 0.000138376  0
0.197369 0.00014808  0
0.197297 0.000155198  0
0.197222 0.000160054  0
0.197143 0.00016294  0
0.197063 0.000164125  0
0.196982 0.000163847  0
0.196901 0.000162325  0
0.19682 0.000159752  0
0.19674 0.000156305  0
0.196662 0.000152137  0
0.196586 0.000147389  0
0.196512 0.000142182  0
0.196441 0.000136625  0
0.196372 0.000130813  0
0.196306 0.000124829  0
0.196243 0.000118745  0
0.196183 0.000112624  0
0.196126 0.00010652  0
0.196072 0.000100477  0
0.196021 9.45339e-05  0
0.195973 8.87231e-05  0
0.195928 8.30704e-05  0
0.195885 7.7597e-05  0
0.195846 7.23194e-05  0
0.195809 6.72503e-05  0
0.195775 6.23987e-05  0
0.195743 5.77707e-05  0
0.195713 5.33697e-05  0
0.195686 4.9197e-05  0
0.195661 4.52515e-05  0
0.195637 4.1531e-05  0
0.195616 3.80314e-05  0
0.195597 3.47478e-05  0
0.195579 3.16741e-05  0
0.195562 2.88035e-05  0
0.195548 2.61289e-05  0
0.195534 2.36422e-05  0
0.195522 2.13354e-05  0
0.195511 1.92001e-05  0
0.195501 1.72279e-05  0
0.195492 1.54103e-05  0
0.195484 1.37388e-05  0
0.195477 1.2205e-05  0
0.195471 1.08007e-05  0
0.195465 9.51794e-06  0
0.19546 8.34887e-06  0
0.195456 7.28597e-06  0
0.195452 6.32198e-06  0
0.195448 5.44992e-06  0
0.195446 4.66312e-06  0
0.195443 3.95523e-06  0
0.195441 3.3202e-06  0
0.195439 2.75232e-06  0
0.195438 2.24617e-06  0
0.195436 1.79666e-06  0
0.195435 1.39899e-06  0
0.195435 1.04867e-06  0
0.195434 7.41485e-07  0
0.195434 4.73517e-07  0
0.195433 2.41111e-07  0
0.195433 4.08706e-08  0
0.195433 -1.30343e-07  0
0.195433 -2.75437e-07  0
0.195433 -3.97114e-07  0
0.195433 -4.97861e-07  0
0.195434 -5.79961e-07  0
0.195434 -6.45506e-07  0
0.195434 -6.96411e-07  0
0.195435 -7.34423e-07  0
0.195435 -7.61135e-07  0
0.195435 -7.77993e-07  0
0.195436 -7.8631e-07  0
0.195436 -7.87272e-07  0
0.195437 -7.81948e-07  0
0.195437 -7.71302e-07  0
0.195437 -7.56195e-07  0
0.195438 -7.374e-07  0
0.195438 -7.15604e-07  0
0.195438 -6.91417e-07  0
0.195439 -6.65378e-07  0
0.195439 -6.37961e-07  0
0.195439 -6.09583e-07  0
0.19544 -5.80606e-07  0
0.19544 -5.51344e-07  0
0.19544 -5.22067e-07  0
0.195441 -4.93007e-07  0
0.195441 -4.64358e-07  0
0.195441 -4.36283e-07  0
0.195441 -4.08918e-07  0
0.195441 -3.82372e-07  0
0.195442 -3.56733e-07  0
0.195442 -3.32067e-07  0
0.195442 -3.08425e-07  0
0.195442 -2.85841e-07  0
0.195442 -2.64336e-07  0
0.195442 -2.4392e-07  0
0.195443 -2.24593e-07  0
0.195443 -2.06345e-07  0
0.195443 -1.89162e-07  0
0.195443 -1.73021e-07  0
0.195443 -1.57895e-07  0
0.195443 -1.43754e-07  0
0.195443 -1.30564e-07  0
0.195443 -1.18288e-07  0