# vtk DataFile Version 4.0
Nusif VTK output
ASCII
DATASET STRUCTURED_POINTS
FIELD FieldData 1
TIME 1 1 double
9

DIMENSIONS 50 50 1
ORIGIN 0 0 0 
SPACING 0.02 0.02 1
POINT_DATA 2500 

VECTORS velocity double
3.83266e-11 3.90391e-11  0
2.44122e-11 1.84805e-11  0
-6.10127e-11 -1.98952e-12  0
-1.04339e-10 -1.29129e-11  0
-1.07886e-10 -1.76525e-11  0
-8.60226e-11 -1.88522e-11  0
-5.40149e-11 -1.66876e-11  0
-2.38876e-11 -1.21077e-11  0
-2.40277e-12 -6.61729e-12  0
8.98615e-12 -1.51441e-12  0
1.26361e-11 2.45793e-12  0
1.25535e-11 5.12507e-12  0
1.24135e-11 6.7096e-12  0
1.43227e-11 7.59863e-12  0
1.85049e-11 8.13757e-12  0
2.37382e-11 8.50999e-12  0
2.81758e-11 8.72406e-12  0
3.01753e-11 8.67402e-12  0
2.8872e-11 8.22785e-12  0
2.43729e-11 7.30411e-12  0
1.75946e-11 5.9196e-12  0
9.88012e-12 4.19935e-12  0
2.57595e-12 2.343e-12  0
-3.29537e-12 5.67425e-13  0
-7.20765e-12 -9.44781e-13  0
-9.14091e-12 -2.07525e-12  0
-9.45603e-12 -2.78096e-12  0
-8.69847e-12 -3.09181e-12  0
-7.41201e-12 -3.08996e-12  0
-6.01757e-12 -2.87383e-12  0
-4.76187e-12 -2.53078e-12  0
-3.72079e-12 -2.13111e-12  0
-2.85082e-12 -1.72724e-12  0
-2.07142e-12 -1.34756e-12  0
-1.3311e-12 -9.98369e-13  0
-6.23249e-13 -6.82114e-13  0
2.52826e-14 -4.06931e-13  0
5.61887e-13 -1.78726e-13  0
9.26042e-13 3.02276e-15  0
1.08636e-12 1.37883e-13  0
1.05983e-12 2.22193e-13  0
8.95237e-13 2.58624e-13  0
6.50074e-13 2.60387e-13  0
3.847e-13 2.41823e-13  0
1.57465e-13 2.09784e-13  0
5.4974e-15 1.67868e-13  0
-7.2679e-14 1.25216e-13  0
-1.04886e-13 9.56839e-14  0
-1.27482e-13 7.5836e-14  0
-7.07155e-14 6.63462e-14  0
1.52809e-11 2.41732e-11  0
1.12572e-11 1.72572e-11  0
-2.43404e-11 -1.61198e-11  0
-5.09676e-11 -3.51447e-11  0
-6.35392e-11 -3.65347e-11  0
-6.13073e-11 -3.12419e-11  0
-4.89455e-11 -2.22971e-11  0
-3.29803e-11 -1.17098e-11  0
-1.87561e-11 -1.60709e-12  0
-9.0352e-12 6.53808e-12  0
-3.98234e-12 1.21833e-11  0
-2.01676e-12 1.55375e-11  0
-9.7208e-13 1.72094e-11  0
8.99996e-13 1.78543e-11  0
4.36382e-12 1.7928e-11  0
9.14044e-12 1.7602e-11  0
1.4234e-11 1.6825e-11  0
1.84232e-11 1.54549e-11  0
2.07172e-11 1.33868e-11  0
2.06476e-11 1.06392e-11  0
1.83473e-11 7.3872e-12  0
1.44309e-11 3.93761e-12  0
9.75204e-12 6.493e-13  0
5.14875e-12 -2.16053e-12  0
1.25627e-12 -4.27855e-12  0
-1.58533e-12 -5.61729e-12  0
-3.33341e-12 -6.2108e-12  0
-4.1676e-12 -6.19241e-12  0
-4.36795e-12 -5.74574e-12  0
-4.20337e-12 -5.0458e-12  0
-3.87411e-12 -4.22851e-12  0
-3.49757e-12 -3.39479e-12  0
-3.11044e-12 -2.61314e-12  0
-2.69407e-12 -1.91158e-12  0
-2.22406e-12 -1.29128e-12  0
-1.70482e-12 -7.562e-13  0
-1.16597e-12 -3.18174e-13  0
-6.48108e-13 2.02338e-14  0
-1.98796e-13 2.66451e-13  0
1.36336e-13 4.24544e-13  0
3.34602e-13 4.96973e-13  0
4.0888e-13 4.98932e-13  0
3.93362e-13 4.59392e-13  0
3.21407e-13 4.00885e-13  0
2.19293e-13 3.31735e-13  0
1.16446e-13 2.56972e-13  0
4.82173e-14 1.91522e-13  0
3.21678e-14 1.50838e-13  0
5.84842e-14 1.22593e-13  0
3.98916e-14 1.17436e-13  0
-3.78215e-12 -6.74349e-11  0
-1.92707e-11 -2.2175e-11  0
-3.11384e-11 -2.98177e-11  0
-2.69136e-11 -4.32459e-11  0
-1.73469e-11 -3.39227e-11  0
-7.85469e-12 -1.78847e-11  0
-8.21974e-13 -2.50306e-12  0
2.97763e-12 9.59593e-12  0
3.89972e-12 1.75072e-11  0
2.95657e-12 2.15362e-11  0
1.32424e-12 2.27002e-11  0
-4.27209e-14 2.21792e-11  0
-6.25058e-13 2.09155e-11  0
-3.67755e-13 1.94194e-11  0
4.44408e-13 1.77836e-11  0
1.38778e-12 1.58487e-11  0
2.08374e-12 1.34142e-11  0
2.30831e-12 1.03953e-11  0
2.0235e-12 6.8884e-12  0
1.35352e-12 3.15848e-12  0
5.18357e-13 -4.26005e-13  0
-2.54488e-13 -3.49287e-12  0
-8.02924e-13 -5.76573e-12  0
-1.05904e-12 -7.12268e-12  0
-1.03941e-12 -7.59466e-12  0
-8.2373e-13 -7.3306e-12  0
-5.26265e-13 -6.55253e-12  0
-2.51961e-13 -5.50229e-12  0
-5.81334e-14 -4.38192e-12  0
4.64187e-14 -3.31975e-12  0
7.67562e-14 -2.38108e-12  0
5.91587e-14 -1.59377e-12  0
3.11928e-14 -9.55543e-13  0
2.41785e-14 -4.40648e-13  0
4.16248e-14 -2.86923e-14  0
6.89179e-14 2.81117e-13  0
9.54402e-14 4.8852e-13  0
1.156e-13 6.04665e-13  0
1.19573e-13 6.42626e-13  0
9.96911e-14 6.11749e-13  0
6.3567e-14 5.28333e-13  0
2.92141e-14 4.21036e-13  0
5.58267e-15 3.17723e-13  0
-1.31221e-14 2.29344e-13  0
-3.23424e-14 1.56517e-13  0
-4.07059e-14 1.02128e-13  0
-2.68113e-14 7.3626e-14  0
1.88624e-15 6.45491e-14  0
2.2855e-14 5.92157e-14  0
1.38096e-14 8.14383e-14  0
-1.40816e-11 -1.20175e-10  0
-3.62734e-11 -5.68833e-11  0
-4.18915e-11 -2.82154e-11  0
-3.06766e-11 -3.36934e-11  0
-1.26738e-11 -2.16048e-11  0
3.2686e-12 -3.3284e-12  0
1.30167e-11 1.24638e-11  0
1.61314e-11 2.27174e-11  0
1.43704e-11 2.71794e-11  0
1.02788e-11 2.716e-11  0
6.11872e-12 2.45354e-11  0
3.26867e-12 2.09884e-11  0
2.08745e-12 1.75963e-11  0
2.14067e-12 1.47425e-11  0
2.62305e-12 1.22839e-11  0
2.77666e-12 9.84986e-12  0
2.15924e-12 7.12025e-12  0
7.26952e-13 3.98898e-12  0
-1.22813e-12 5.98697e-13  0
-3.22949e-12 -2.71792e-12  0
-4.80411e-12 -5.55629e-12  0
-5.63875e-12 -7.57722e-12  0
-5.64536e-12 -8.60603e-12  0
-4.9372e-12 -8.65963e-12  0
-3.75916e-12 -7.90965e-12  0
-2.41023e-12 -6.62322e-12  0
-1.1617e-12 -5.09976e-12  0
-1.84305e-13 -3.60135e-12  0
4.72439e-13 -2.2966e-12  0
8.4105e-13 -1.25483e-12  0
9.90276e-13 -4.81275e-13  0
1.00785e-12 5.50575e-14  0
9.78306e-13 4.12525e-13  0
9.44703e-13 6.51714e-13  0
9.04209e-13 8.03113e-13  0
8.43977e-13 8.73453e-13  0
7.60281e-13 8.73037e-13  0
6.48006e-13 8.16338e-13  0
5.0188e-13 7.11774e-13  0
3.33772e-13 5.68594e-13  0
1.74823e-13 4.08134e-13  0
5.08107e-14 2.60035e-13  0
-3.52019e-14 1.41873e-13  0
-9.11843e-14 5.47201e-14  0
-1.18123e-13 -3.67414e-15  0
-1.08331e-13 -3.13265e-14  0
-7.38327e-14 -2.8753e-14  0
-3.99524e-14 -1.56359e-14  0
-2.59499e-14 -1.42074e-15  0
-1.32893e-14 4.11182e-14  0
-1.88866e-11 -1.3118e-10  0
-3.69569e-11 -7.80355e-11  0
-3.10702e-11 -2.03775e-11  0
-1.74674e-11 -1.52354e-11  0
-9.64022e-13 -3.94729e-12  0
1.19049e-11 1.06551e-11  0
1.81331e-11 2.18329e-11  0
1.80795e-11 2.72099e-11  0
1.40033e-11 2.71984e-11  0
8.61731e-12 2.36159e-11  0
4.0603e-12 1.85563e-11  0
1.40405e-12 1.36408e-11  0
6.50451e-13 9.70992e-12  0
1.08139e-12 6.8665e-12  0
1.74933e-12 4.74641e-12  0
1.8897e-12 2.85706e-12  0
1.13859e-12 8.36824e-13  0
-4.36118e-13 -1.42204e-12  0
-2.43816e-12 -3.77282e-12  0
-4.33123e-12 -5.90013e-12  0
-5.64696e-12 -7.45733e-12  0
-6.12904e-12 -8.2039e-12  0
-5.76441e-12 -8.07883e-12  0
-4.7328e-12 -7.1944e-12  0
-3.32984e-12 -5.78308e-12  0
-1.8801e-12 -4.13454e-12  0
-6.42073e-13 -2.52847e-12  0
2.57178e-13 -1.1672e-12  0
8.10912e-13 -1.40998e-13  0
1.0754e-12 5.488e-13  0
1.13671e-12 9.46662e-13  0
1.09878e-12 1.12436e-12  0
1.04367e-12 1.16874e-12  0
9.94151e-13 1.14477e-12  0
9.36936e-13 1.0759e-12  0
8.63387e-13 9.69527e-13  0
7.69302e-13 8.37803e-13  0
6.42829e-13 6.88416e-13  0
4.79874e-13 5.21844e-13  0
3.03111e-13 3.45931e-13  0
1.47956e-13 1.82454e-13  0
3.12698e-14 5.25534e-14  0
-5.14041e-14 -3.84935e-14  0
-1.03967e-13 -9.63682e-14  0
-1.20177e-13 -1.23318e-13  0
-9.90942e-14 -1.19931e-13  0
-6.37544e-14 -9.33689e-14  0
-4.1113e-14 -6.56775e-14  0
-3.86917e-14 -4.01979e-14  0
-2.11652e-14 9.04658e-15  0
-2.01074e-11 -1.10602e-10  0
-3.07225e-11 -8.14528e-11  0
-1.31612e-11 -1.10856e-11  0
2.24644e-12 3.27581e-12  0
1.44326e-11 1.20982e-11  0
2.07046e-11 2.03366e-11  0
2.06052e-11 2.47362e-11  0
1.58958e-11 2.43208e-11  0
9.2717e-12 2.01627e-11  0
3.18627e-12 1.42252e-11  0
-8.50744e-13 8.36581e-12  0
-2.47009e-12 3.76252e-12  0
-2.22238e-12 7.76694e-13  0
-1.11027e-12 -8.66402e-13  0
-1.05303e-13 -1.74226e-12  0
1.68061e-13 -2.40811e-12  0
-4.63903e-13 -3.20851e-12  0
-1.77773e-12 -4.21835e-12  0
-3.30742e-12 -5.28301e-12  0
-4.55232e-12 -6.12543e-12  0
-5.16113e-12 -6.4837e-12  0
-5.0176e-12 -6.22271e-12  0
-4.21667e-12 -5.36899e-12  0
-2.99254e-12 -4.07844e-12  0
-1.64399e-12 -2.58182e-12  0
-4.48844e-13 -1.12783e-12  0
4.23349e-13 8.01564e-14  0
9.40531e-13 9.36746e-13  0
1.15768e-12 1.43828e-12  0
1.15856e-12 1.63987e-12  0
1.04309e-12 1.61851e-12  0
9.12652e-13 1.46579e-12  0
8.1958e-13 1.26824e-12  0
7.53839e-13 1.07092e-12  0
6.92732e-13 8.80178e-13  0
6.28473e-13 6.98383e-13  0
5.49974e-13 5.30618e-13  0
4.40299e-13 3.72106e-13  0
3.01541e-13 2.16717e-13  0
1.63574e-13 7.10248e-14  0
5.56084e-14 -4.66094e-14  0
-1.97034e-14 -1.26218e-13  0
-7.148e-14 -1.71752e-13  0
-9.84464e-14 -1.90665e-13  0
-9.19913e-14 -1.83613e-13  0
-6.1079e-14 -1.54151e-13  0
-3.21171e-14 -1.13882e-13  0
-2.37013e-14 -8.02336e-14  0
-3.19571e-14 -5.26358e-14  0
-1.89716e-14 -9.03791e-15  0
-1.74625e-11 -7.22891e-11  0
-2.00047e-11 -6.96549e-11  0
4.69188e-12 -2.87141e-12  0
1.99388e-11 1.66447e-11  0
2.67459e-11 2.22156e-11  0
2.59607e-11 2.37864e-11  0
1.96876e-11 2.16698e-11  0
1.09739e-11 1.64122e-11  0
2.71705e-12 9.57604e-12  0
-3.13939e-12 2.95857e-12  0
-5.90699e-12 -2.11229e-12  0
-6.00766e-12 -5.09543e-12  0
-4.52613e-12 -6.18118e-12  0
-2.666e-12 -6.00352e-12  0
-1.32979e-12 -5.28928e-12  0
-9.35023e-13 -4.59814e-12  0
-1.43144e-12 -4.20965e-12  0
-2.43726e-12 -4.13162e-12  0
-3.44062e-12 -4.18035e-12  0
-4.01386e-12 -4.1057e-12  0
-3.95166e-12 -3.71871e-12  0
-3.28329e-12 -2.96352e-12  0
-2.19939e-12 -1.91321e-12  0
-9.68485e-13 -7.23302e-13  0
1.35437e-13 4.16556e-13  0
9.15009e-13 1.33116e-12  0
1.31203e-12 1.91264e-12  0
1.38906e-12 2.15079e-12  0
1.2505e-12 2.10869e-12  0
9.99323e-13 1.8726e-12  0
7.41419e-13 1.53145e-12  0
5.58147e-13 1.17505e-12  0
4.58946e-13 8.66853e-13  0
4.04226e-13 6.194e-13  0
3.66413e-13 4.19886e-13  0
3.33982e-13 2.62161e-13  0
2.86796e-13 1.38656e-13  0
2.08185e-13 3.32087e-14  0
1.10603e-13 -6.33157e-14  0
2.65672e-14 -1.44111e-13  0
-2.63278e-14 -1.97073e-13  0
-5.69924e-14 -2.20908e-13  0
-7.43812e-14 -2.23893e-13  0
-7.29685e-14 -2.10628e-13  0
-4.66605e-14 -1.80508e-13  0
-1.26353e-14 -1.3839e-13  0
4.24507e-15 -9.78219e-14  0
-1.54654e-15 -6.8761e-14  0
-1.73958e-14 -4.60144e-14  0
-1.2466e-14 -1.65024e-14  0
-1.16991e-11 -2.97592e-11  0
-6.82602e-12 -4.88492e-11  0
1.92964e-11 2.88696e-12  0
3.18673e-11 2.30053e-11  0
3.29609e-11 2.52554e-11  0
2.60929e-11 2.14246e-11  0
1.52815e-11 1.45813e-11  0
4.32945e-12 6.48097e-12  0
-4.03895e-12 -1.10567e-12  0
-8.59036e-12 -6.78274e-12  0
-9.49922e-12 -9.89432e-12  0
-7.89923e-12 -1.05682e-11  0
-5.26163e-12 -9.48638e-12  0
-2.84061e-12 -7.53198e-12  0
-1.36595e-12 -5.47536e-12  0
-1.00262e-12 -3.79997e-12  0
-1.47606e-12 -2.67267e-12  0
-2.27281e-12 -2.00475e-12  0
-2.87283e-12 -1.56484e-12  0
-2.94692e-12 -1.11438e-12  0
-2.43189e-12 -5.14758e-13  0
-1.47533e-12 2.41929e-13  0
-3.31815e-13 1.06827e-12  0
7.21639e-13 1.8324e-12  0
1.45807e-12 2.39947e-12  0
1.77486e-12 2.67313e-12  0
1.71912e-12 2.63395e-12  0
1.4229e-12 2.3432e-12  0
1.016e-12 1.89899e-12  0
6.08172e-13 1.39307e-12  0
2.97562e-13 9.07413e-13  0
1.2929e-13 5.11107e-13  0
6.82307e-14 2.30688e-13  0
5.64655e-14 4.53656e-14  0
6.60039e-14 -7.2907e-14  0
7.82768e-14 -1.3989e-13  0
6.72236e-14 -1.75874e-13  0
2.33851e-14 -2.02352e-13  0
-3.02339e-14 -2.26623e-13  0
-6.31319e-14 -2.40305e-13  0
-6.99812e-14 -2.36987e-13  0
-6.5758e-14 -2.19589e-13  0
-5.5295e-14 -1.95791e-13  0
-3.15694e-14 -1.65875e-13  0
5.34122e-15 -1.28993e-13  0
3.40638e-14 -8.98864e-14  0
3.57324e-14 -6.09495e-14  0
1.82707e-14 -4.42381e-14  0
-1.59957e-15 -3.02657e-14  0
-4.98961e-15 -1.7957e-14  0
-4.41855e-12 6.77452e-12  0
6.25337e-12 -2.57604e-11  0
2.8981e-11 5.792e-12  0
3.69558e-11 2.29441e-11  0
3.27845e-11 2.23926e-11  0
2.1623e-11 1.52104e-11  0
8.5262e-12 6.04404e-12  0
-2.59359e-12 -2.67052e-12  0
-9.5581e-12 -9.25944e-12  0
-1.19615e-11 -1.28668e-11  0
-1.07651e-11 -1.35083e-11  0
-7.62634e-12 -1.18806e-11  0
-4.1915e-12 -9.00366e-12  0
-1.6e-12 -5.85188e-12  0
-3.18261e-13 -3.11302e-12  0
-2.33146e-13 -1.11447e-12  0
-8.63007e-13 1.30815e-13  0
-1.60491e-12 8.21555e-13  0
-1.97503e-12 1.23581e-12  0
-1.76213e-12 1.60056e-12  0
-1.02955e-12 2.0162e-12  0
-9.08412e-15 2.46411e-12  0
1.0129e-12 2.8592e-12  0
1.77529e-12 3.09897e-12  0
2.11333e-12 3.09956e-12  0
2.01776e-12 2.8316e-12  0
1.61747e-12 2.34152e-12  0
1.08015e-12 1.73038e-12  0
5.38262e-13 1.10081e-12  0
9.61738e-14 5.30603e-13  0
-1.70233e-13 8.05727e-14  0
-2.62149e-13 -2.13727e-13  0
-2.51423e-13 -3.66015e-13  0
-2.00761e-13 -4.22135e-13  0
-1.36377e-13 -4.17756e-13  0
-8.3329e-14 -3.76162e-13  0
-6.66267e-14 -3.24582e-13  0
-8.30889e-14 -2.82296e-13  0
-1.01792e-13 -2.50405e-13  0
-9.79418e-14 -2.18251e-13  0
-7.57888e-14 -1.82825e-13  0
-5.08045e-14 -1.46981e-13  0
-2.30244e-14 -1.15211e-13  0
1.33561e-14 -8.42928e-14  0
5.10886e-14 -5.42084e-14  0
6.83877e-14 -2.89456e-14  0
5.65134e-14 -1.73663e-14  0
3.23533e-14 -1.47807e-14  0
1.19734e-14 -1.11898e-14  0
2.00676e-15 -1.5217e-14  0
2.7283e-12 3.18673e-11  0
1.7077e-11 -5.56254e-12  0
3.34056e-11 6.23115e-12  0
3.59632e-11 1.84718e-11  0
2.7653e-11 1.60065e-11  0
1.43046e-11 7.61886e-12  0
1.15414e-12 -1.60942e-12  0
-8.34316e-12 -9.11118e-12  0
-1.28197e-11 -1.35585e-11  0
-1.27075e-11 -1.46706e-11  0
-9.5879e-12 -1.30198e-11  0
-5.39467e-12 -9.67862e-12  0
-1.72115e-12 -5.8016e-12  0
5.53317e-13 -2.29123e-12  0
1.28205e-12 3.5157e-13  0
8.51589e-13 2.00751e-12  0
-8.8427e-14 2.83252e-12  0
-8.9916e-13 3.12446e-12  0
-1.17594e-12 3.18598e-12  0
-8.37015e-13 3.21624e-12  0
-5.34757e-14 3.27669e-12  0
8.88494e-13 3.3302e-12  0
1.6964e-12 3.29851e-12  0
2.14389e-12 3.1042e-12  0
2.13683e-12 2.70282e-12  0
1.7469e-12 2.11202e-12  0
1.15228e-12 1.41518e-12  0
5.24751e-13 7.21688e-13  0
-1.69748e-14 1.16944e-13  0
-3.84503e-13 -3.45943e-13  0
-5.36335e-13 -6.3413e-13  0
-5.19928e-13 -7.48888e-13  0
-4.28344e-13 -7.36552e-13  0
-3.17908e-13 -6.547e-13  0
-2.12138e-13 -5.38436e-13  0
-1.38368e-13 -4.13532e-13  0
-1.1245e-13 -3.06054e-13  0
-1.16497e-13 -2.26622e-13  0
-1.15992e-13 -1.68243e-13  0
-9.35262e-14 -1.19077e-13  0
-5.91611e-14 -7.68352e-14  0
-2.60251e-14 -4.25623e-14  0
9.22652e-15 -1.70705e-14  0
4.91235e-14 4.38712e-15  0
8.05118e-14 2.06874e-14  0
8.49528e-14 2.86177e-14  0
6.50478e-14 2.37978e-14  0
3.984e-14 1.46888e-14  0
2.10495e-14 7.55819e-15  0
7.06849e-15 -9.65634e-15  0
8.52389e-12 4.46585e-11  0
2.4416e-11 9.00903e-12  0
3.32935e-11 5.05718e-12  0
3.0701e-11 1.20304e-11  0
1.97665e-11 8.63853e-12  0
6.2145e-12 7.86141e-13  0
-5.22217e-12 -6.88102e-12  0
-1.19333e-11 -1.2096e-11  0
-1.34695e-11 -1.40149e-11  0
-1.10005e-11 -1.28707e-11  0
-6.50389e-12 -9.61007e-12  0
-1.93557e-12 -5.4548e-12  0
1.36273e-12 -1.49368e-12  0
2.87242e-12 1.57291e-12  0
2.77991e-12 3.48776e-12  0
1.70521e-12 4.34644e-12  0
4.02584e-13 4.45259e-12  0
-5.14638e-13 4.16975e-12  0
-7.56536e-13 3.79174e-12  0
-3.70166e-13 3.4686e-12  0
3.88136e-13 3.21591e-12  0
1.20129e-12 2.97561e-12  0
1.78855e-12 2.67121e-12  0
1.97083e-12 2.2417e-12  0
1.72502e-12 1.66884e-12  0
1.18409e-12 9.97227e-13  0
5.43624e-13 3.21005e-13  0
-4.39509e-14 -2.65112e-13  0
-4.82829e-13 -7.03188e-13  0
-7.08514e-13 -9.65794e-13  0
-7.19446e-13 -1.04679e-12  0
-5.99527e-13 -9.78003e-13  0
-4.44715e-13 -8.23993e-13  0
-2.97683e-13 -6.40476e-13  0
-1.7877e-13 -4.56314e-13  0
-1.11458e-13 -2.94639e-13  0
-9.68704e-14 -1.73505e-13  0
-1.03891e-13 -9.15813e-14  0
-9.92235e-14 -3.50804e-14  0
-7.30135e-14 7.37865e-15  0
-3.80901e-14 3.85759e-14  0
-4.58363e-15 5.92876e-14  0
3.1557e-14 7.11644e-14  0
6.87277e-14 7.87209e-14  0
9.07953e-14 8.00159e-14  0
8.50229e-14 7.24256e-14  0
6.28968e-14 5.54079e-14  0
4.01985e-14 3.80598e-14  0
2.39013e-14 2.18723e-14  0
9.11622e-15 -3.79471e-15  0
1.23604e-11 4.7525e-11  0
2.80187e-11 1.75601e-11  0
2.9965e-11 3.23755e-12  0
2.32733e-11 5.7112e-12  0
1.12738e-11 2.23729e-12  0
-9.39373e-13 -4.00579e-12  0
-9.58007e-12 -9.31193e-12  0
-1.30669e-11 -1.19653e-11  0
-1.18237e-11 -1.16231e-11  0
-7.57037e-12 -8.9021e-12  0
-2.43768e-12 -4.92518e-12  0
1.81204e-12 -8.63087e-13  0
4.2221e-12 2.41107e-12  0
4.67466e-12 4.47446e-12  0
3.66017e-12 5.32139e-12  0
1.96552e-12 5.22902e-12  0
3.72245e-13 4.59883e-12  0
-5.92947e-13 3.81081e-12  0
-7.7835e-13 3.11384e-12  0
-3.47815e-13 2.59066e-12  0
3.82002e-13 2.20387e-12  0
1.0828e-12 1.86845e-12  0
1.49804e-12 1.50107e-12  0
1.50181e-12 1.0485e-12  0
1.13527e-12 5.09382e-13  0
5.70011e-13 -5.86631e-14  0
-6.12985e-15 -5.67138e-13  0
-4.71442e-13 -9.46011e-13  0
-7.55487e-13 -1.1643e-12  0
-8.21885e-13 -1.21493e-12  0
-7.07632e-13 -1.11275e-12  0
-5.17067e-13 -9.08578e-13  0
-3.33385e-13 -6.70156e-13  0
-1.82891e-13 -4.4179e-13  0
-8.19706e-14 -2.4356e-13  0
-4.46638e-14 -9.23419e-14  0
-5.54902e-14 5.87985e-15  0
-7.5655e-14 6.33243e-14  0
-7.66732e-14 9.78106e-14  0
-5.51215e-14 1.19157e-13  0
-2.50091e-14 1.30641e-13  0
5.74117e-15 1.3383e-13  0
3.98043e-14 1.31035e-13  0
7.1582e-14 1.25398e-13  0
8.47171e-14 1.14485e-13  0
7.30399e-14 9.58452e-14  0
5.22311e-14 7.16172e-14  0
3.35091e-14 4.99453e-14  0
2.07151e-14 2.87851e-14  0
8.30018e-15 -1.34441e-16  0
1.4197e-11 4.4279e-11  0
2.83831e-11 2.13039e-11  0
2.48623e-11 1.56038e-12  0
1.54921e-11 8.10646e-13  0
3.75113e-12 -2.19147e-12  0
-6.17053e-12 -6.43451e-12  0
-1.16282e-11 -9.31303e-12  0
-1.20723e-11 -9.73981e-12  0
-8.64785e-12 -7.80124e-12  0
-3.39439e-12 -4.3407e-12  0
1.62941e-12 -4.82133e-13  0
5.00729e-12 2.79619e-12  0
6.22259e-12 4.91609e-12  0
5.53725e-12 5.74769e-12  0
3.68279e-12 5.50564e-12  0
1.53351e-12 4.591e-12  0
-1.77737e-13 3.43879e-12  0
-1.06111e-12 2.39032e-12  0
-1.1133e-12 1.61601e-12  0
-5.95939e-13 1.11982e-12  0
1.38458e-13 8.10507e-13  0
7.68371e-13 5.74645e-13  0
1.07249e-12 3.18733e-13  0
9.80715e-13 -5.54938e-15  0
5.87242e-13 -3.86451e-13  0
8.07145e-14 -7.59981e-13  0
-3.742e-13 -1.04952e-12  0
-6.87853e-13 -1.20901e-12  0
-8.12975e-13 -1.22744e-12  0
-7.42382e-13 -1.11176e-12  0
-5.44485e-13 -8.91104e-13  0
-3.27283e-13 -6.23699e-13  0
-1.51896e-13 -3.68509e-13  0
-2.9643e-14 -1.537e-13  0
2.85678e-14 1.00033e-14  0
2.23371e-14 1.14661e-13  0
-1.89125e-14 1.66487e-13  0
-5.51817e-14 1.84725e-13  0
-6.51777e-14 1.88244e-13  0
-5.04666e-14 1.8441e-13  0
-2.56374e-14 1.76673e-13  0
2.49087e-15 1.65657e-13  0
3.41358e-14 1.53045e-13  0
6.04873e-14 1.39154e-13  0
6.69929e-14 1.21685e-13  0
5.34197e-14 9.81446e-14  0
3.60976e-14 7.24507e-14  0
2.21249e-14 5.07936e-14  0
1.36345e-14 2.9329e-14  0
5.62378e-15 1.24293e-15  0
1.43837e-11 3.85673e-11  0
2.64014e-11 2.21044e-11  0
1.91824e-11 4.70111e-13  0
8.55056e-12 -2.24674e-12  0
-1.9921e-12 -4.53985e-12  0
-9.23802e-12 -6.91319e-12  0
-1.16756e-11 -7.78243e-12  0
-9.66145e-12 -6.63995e-12  0
-4.85644e-12 -3.88629e-12  0
6.06958e-13 -4.4212e-13  0
4.92091e-12 2.69939e-12  0
7.09911e-12 4.82896e-12  0
7.0541e-12 5.67564e-12  0
5.35888e-12 5.36599e-12  0
2.89975e-12 4.27415e-12  0
5.5622e-13 2.85739e-12  0
-1.05137e-12 1.52077e-12  0
-1.70062e-12 5.19548e-13  0
-1.53182e-12 -7.74545e-14  0
-8.80845e-13 -3.45806e-13  0
-1.1293e-13 -4.22381e-13  0
4.74503e-13 -4.4109e-13  0
7.07676e-13 -4.9898e-13  0
5.73782e-13 -6.35158e-13  0
2.07091e-13 -8.24766e-13  0
-2.04682e-13 -1.00058e-12  0
-5.27591e-13 -1.09818e-12  0
-6.99752e-13 -1.0891e-12  0
-6.94208e-13 -9.73937e-13  0
-5.31044e-13 -7.6804e-13  0
-2.99515e-13 -5.0829e-13  0
-9.7495e-14 -2.5097e-13  0
3.89324e-14 -3.86557e-14  0
1.1005e-13 1.17004e-13  0
1.12582e-13 2.1435e-13  0
6.05838e-14 2.55046e-13  0
-7.61702e-15 2.54653e-13  0
-5.64825e-14 2.34562e-13  0
-7.28015e-14 2.11451e-13  0
-6.19941e-14 1.89754e-13  0
-3.94823e-14 1.71383e-13  0
-1.19035e-14 1.55218e-13  0
1.85424e-14 1.41152e-13  0
4.07002e-14 1.26271e-13  0
4.30848e-14 1.08667e-13  0
3.10012e-14 8.65688e-14  0
1.86875e-14 6.4602e-14  0
9.78939e-15 4.62e-14  0
5.68721e-15 2.72777e-14  0
2.44552e-15 1.9108e-15  0
1.34364e-11 3.28812e-11  0
2.30169e-11 2.16566e-11  0
1.37015e-11 5.58329e-14  0
2.97419e-12 -3.70479e-12  0
-5.82957e-12 -5.30202e-12  0
-1.04487e-11 -6.22352e-12  0
-1.03684e-11 -5.70832e-12  0
-6.65304e-12 -3.70833e-12  0
-1.26233e-12 -8.14769e-13  0
3.76862e-12 2.09164e-12  0
7.00008e-12 4.22838e-12  0
7.89605e-12 5.17402e-12  0
6.74008e-12 4.92578e-12  0
4.32128e-12 3.79554e-12  0
1.58446e-12 2.24029e-12  0
-6.62642e-13 7.07307e-13  0
-1.95758e-12 -4.7773e-13  0
-2.25249e-12 -1.173e-12  0
-1.80926e-12 -1.41534e-12  0
-1.00951e-12 -1.34819e-12  0
-2.09498e-13 -1.13824e-12  0
3.33978e-13 -9.24529e-13  0
5.05518e-13 -7.9418e-13  0
3.48908e-13 -7.68796e-13  0
2.53906e-14 -8.08896e-13  0
-2.91812e-13 -8.45799e-13  0
-5.01214e-13 -8.25386e-13  0
-5.6405e-13 -7.29782e-13  0
-4.71547e-13 -5.64271e-13  0
-2.66801e-13 -3.47555e-13  0
-4.7579e-14 -1.18561e-13  0
1.08191e-13 7.52731e-14  0
1.87268e-13 2.09611e-13  0
1.97973e-13 2.86066e-13  0
1.45641e-13 3.10292e-13  0
5.63425e-14 2.91967e-13  0
-2.85366e-14 2.51445e-13  0
-8.14971e-14 2.07885e-13  0
-9.71915e-14 1.73039e-13  0
-8.43442e-14 1.47834e-13  0
-5.96176e-14 1.30975e-13  0
-3.03209e-14 1.19312e-13  0
-2.6447e-16 1.11003e-13  0
1.90498e-14 1.00916e-13  0
1.96619e-14 8.78464e-14  0
1.0913e-14 7.10387e-14  0
3.87913e-15 5.52319e-14  0
-4.89058e-16 4.06801e-14  0
-1.12749e-15 2.49046e-14  0
-3.96695e-16 2.5379e-15  0
1.185e-11 2.82655e-11  0
1.89958e-11 2.10141e-11  0
8.78375e-12 1.4995e-13  0
-1.2256e-12 -4.14997e-12  0
-8.08039e-12 -5.21086e-12  0
-1.03831e-11 -5.16956e-12  0
-8.42304e-12 -3.87325e-12  0
-3.75009e-12 -1.59169e-12  0
1.57873e-12 1.00181e-12  0
5.7655e-12 3.14072e-12  0
7.79004e-12 4.27999e-12  0
7.53311e-12 4.25871e-12  0
5.56295e-12 3.27452e-12  0
2.78356e-12 1.74172e-12  0
1.08804e-13 1.25481e-13  0
-1.78765e-12 -1.19059e-12  0
-2.62498e-12 -1.98782e-12  0
-2.5142e-12 -2.24059e-12  0
-1.80315e-12 -2.07518e-12  0
-8.87271e-13 -1.68072e-12  0
-9.25997e-14 -1.23318e-12  0
3.78282e-13 -8.59471e-13  0
4.74145e-13 -6.22738e-13  0
2.89661e-13 -5.1888e-13  0
1.86363e-16 -4.92681e-13  0
-2.43631e-13 -4.74862e-13  0
-3.71232e-13 -4.19965e-13  0
-3.6313e-13 -3.15976e-13  0
-2.27554e-13 -1.68863e-13  0
-2.48229e-14 2.00447e-15  0
1.50433e-13 1.59896e-13  0
2.44984e-13 2.69466e-13  0
2.63419e-13 3.21809e-13  0
2.18917e-13 3.26488e-13  0
1.24945e-13 2.93451e-13  0
1.47704e-14 2.37336e-13  0
-7.26552e-14 1.7852e-13  0
-1.19188e-13 1.31424e-13  0
-1.26758e-13 1.01356e-13  0
-1.06625e-13 8.57526e-14  0
-7.64305e-14 7.97409e-14  0
-4.47112e-14 7.82326e-14  0
-1.54551e-14 7.86532e-14  0
1.49369e-15 7.5542e-14  0
1.59192e-15 6.82345e-14  0
-3.78553e-15 5.73161e-14  0
-6.83106e-15 4.70969e-14  0
-7.98227e-15 3.55263e-14  0
-5.82512e-15 2.24976e-14  0
-2.14565e-15 3.13031e-15  0
9.99022e-12 2.4582e-11  0
1.48389e-11 2.04911e-11  0
4.50165e-12 4.66481e-13  0
-4.31795e-12 -4.20362e-12  0
-9.24381e-12 -4.93094e-12  0
-9.64753e-12 -4.33311e-12  0
-6.42574e-12 -2.69441e-12  0
-1.4047e-12 -4.78717e-13  0
3.4283e-12 1.63818e-12  0
6.59925e-12 3.03658e-12  0
7.50233e-12 3.3922e-12  0
6.36279e-12 2.74871e-12  0
3.93594e-12 1.4291e-12  0
1.14946e-12 -1.2297e-13  0
-1.18351e-12 -1.49099e-12  0
-2.56204e-12 -2.3874e-12  0
-2.88739e-12 -2.70611e-12  0
-2.39785e-12 -2.51996e-12  0
-1.48567e-12 -2.0148e-12  0
-5.28272e-13 -1.39672e-12  0
1.97694e-13 -8.30117e-13  0
5.53255e-13 -4.1505e-13  0
5.50268e-13 -1.80978e-13  0
3.23721e-13 -9.43022e-14  0
5.05793e-14 -8.49052e-14  0
-1.4559e-13 -8.47438e-14  0
-2.21605e-13 -5.64332e-14  0
-1.74339e-13 7.7334e-15  0
-2.79459e-14 1.01137e-13  0
1.46202e-13 2.03962e-13  0
2.65129e-13 2.83684e-13  0
2.99954e-13 3.17126e-13  0
2.67251e-13 3.0586e-13  0
1.83114e-13 2.62556e-13  0
6.72353e-14 1.98678e-13  0
-4.51951e-14 1.30231e-13  0
-1.2174e-13 7.43346e-14  0
-1.53439e-13 3.96419e-14  0
-1.48244e-13 2.53781e-14  0
-1.19157e-13 2.63253e-14  0
-8.35035e-14 3.48332e-14  0
-5.06247e-14 4.45243e-14  0
-2.36472e-14 5.30184e-14  0
-9.50058e-15 5.61313e-14  0
-9.78241e-15 5.35093e-14  0
-1.33073e-14 4.7116e-14  0
-1.41143e-14 4.04789e-14  0
-1.27935e-14 3.1506e-14  0
-8.13234e-15 2.06354e-14  0
-2.55998e-15 4.14165e-15  0
8.06564e-12 2.10728e-11  0
1.08008e-11 1.98448e-11  0
7.84932e-13 7.26655e-13  0
-6.63472e-12 -4.3068e-12  0
-9.78088e-12 -4.86384e-12  0
-8.70055e-12 -3.95822e-12  0
-4.72331e-12 -2.20512e-12  0
2.20454e-13 -1.78512e-13  0
4.3352e-12 1.49028e-12  0
6.50951e-12 2.33051e-12  0
6.50813e-12 2.19825e-12  0
4.81053e-12 1.27721e-12  0
2.26454e-12 -4.98932e-14  0
-2.51381e-13 -1.36137e-12  0
-2.06807e-12 -2.32041e-12  0
-2.86919e-12 -2.7446e-12  0
-2.71846e-12 -2.62858e-12  0
-1.94116e-12 -2.11489e-12  0
-9.34317e-13 -1.41458e-12  0
-3.06223e-14 -7.22981e-13  0
5.57324e-13 -1.75369e-13  0
7.58569e-13 1.64737e-13  0
6.40941e-13 3.04414e-13  0
3.65074e-13 3.03988e-13  0
9.73746e-14 2.436e-13  0
-6.79704e-14 1.87013e-13  0
-1.11091e-13 1.62907e-13  0
-4.32675e-14 1.74021e-13  0
9.6963e-14 2.107e-13  0
2.33588e-13 2.51598e-13  0
2.99919e-13 2.69057e-13  0
2.87615e-13 2.50112e-13  0
2.19975e-13 2.02327e-13  0
1.15046e-13 1.38324e-13  0
-3.52244e-15 6.93993e-14  0
-1.02931e-13 1.00423e-14  0
-1.59544e-13 -2.78848e-14  0
-1.72409e-13 -4.13046e-14  0
-1.53806e-13 -3.55228e-14  0
-1.17651e-13 -1.71365e-14  0
-7.93508e-14 4.80518e-15  0
-4.78221e-14 2.35827e-14  0
-2.50742e-14 3.75698e-14  0
-1.46995e-14 4.46665e-14  0
-1.58408e-14 4.48027e-14  0
-1.89486e-14 4.09022e-14  0
-1.86648e-14 3.60476e-14  0
-1.51024e-14 2.93853e-14  0
-8.27112e-15 1.99892e-14  0
-2.00127e-15 6.11663e-15  0
6.15551e-12 1.69552e-11  0
6.96811e-12 1.85953e-11  0
-2.45322e-12 7.48388e-13  0
-8.4178e-12 -4.6244e-12  0
-9.98208e-12 -5.08919e-12  0
-7.77445e-12 -3.97179e-12  0
-3.41252e-12 -2.16265e-12  0
1.19963e-12 -3.01008e-13  0
4.53408e-12 1.04731e-12  0
5.84266e-12 1.54799e-12  0
5.19796e-12 1.19384e-12  0
3.2439e-12 2.5203e-13  0
8.40676e-13 -8.83182e-13  0
-1.23386e-12 -1.84085e-12  0
-2.47361e-12 -2.37211e-12  0
-2.73594e-12 -2.39078e-12  0
-2.21242e-12 -1.96959e-12  0
-1.27313e-12 -1.28989e-12  0
-2.8761e-13 -5.58204e-13  0
4.7385e-13 6.20129e-14  0
8.70469e-13 4.76149e-13  0
8.97773e-13 6.61055e-13  0
6.67937e-13 6.56763e-13  0
3.51086e-13 5.4204e-13  0
9.20914e-14 3.98875e-13  0
-4.52374e-14 2.82357e-13  0
-6.12174e-14 2.11265e-13  0
2.0151e-14 1.81924e-13  0
1.49089e-13 1.79644e-13  0
2.51023e-13 1.80754e-13  0
2.77127e-13 1.62374e-13  0
2.34329e-13 1.19074e-13  0
1.4898e-13 6.11403e-14  0
4.03481e-14 -2.3679e-16  0
-6.63932e-14 -5.48719e-14  0
-1.43587e-13 -9.15336e-14  0
-1.76859e-13 -1.04238e-13  0
-1.71257e-13 -9.43629e-14  0
-1.41728e-13 -6.98703e-14  0
-1.02501e-13 -3.78005e-14  0
-6.56648e-14 -6.9068e-15  0
-3.83527e-14 1.67375e-14  0
-2.15738e-14 3.25556e-14  0
-1.59031e-14 4.07738e-14  0
-1.86216e-14 4.15674e-14  0
-2.18006e-14 3.83157e-14  0
-2.07384e-14 3.40171e-14  0
-1.54635e-14 2.87634e-14  0
-7.35895e-15 2.02182e-14  0
-1.28955e-15 8.815e-15  0
4.2682e-12 1.18369e-11  0
3.35972e-12 1.63461e-11  0
-5.23498e-12 4.87923e-13  0
-9.75322e-12 -5.06892e-12  0
-9.93729e-12 -5.43553e-12  0
-6.89568e-12 -4.11229e-12  0
-2.41155e-12 -2.22673e-12  0
1.73298e-12 -4.59991e-13  0
4.31555e-12 6.95125e-13  0
4.92565e-12 1.02535e-12  0
3.87573e-12 6.2465e-13  0
1.89709e-12 -1.97549e-13  0
-1.98117e-13 -1.06672e-12  0
-1.76399e-12 -1.67568e-12  0
-2.45844e-12 -1.85787e-12  0
-2.28693e-12 -1.60417e-12  0
-1.52714e-12 -1.03828e-12  0
-5.55061e-13 -3.52483e-13  0
3.09845e-13 2.72723e-13  0
8.6813e-13 7.17587e-13  0
1.05074e-12 9.32671e-13  0
9.1153e-13 9.32881e-13  0
5.92161e-13 7.82928e-13  0
2.57339e-13 5.68767e-13  0
2.25474e-14 3.65073e-13  0
-7.86165e-14 2.1344e-13  0
-6.42691e-14 1.21429e-13  0
3.04767e-14 7.78466e-14  0
1.49245e-13 6.24752e-14  0
2.24485e-13 5.0287e-14  0
2.24739e-13 2.28003e-14  0
1.67197e-13 -2.04446e-14  0
7.87943e-14 -6.87939e-14  0
-2.06814e-14 -1.12582e-13  0
-1.07145e-13 -1.43082e-13  0
-1.59339e-13 -1.53004e-13  0
-1.70912e-13 -1.41302e-13  0
-1.50677e-13 -1.1222e-13  0
-1.14733e-13 -7.46798e-14  0
-7.71493e-14 -3.57128e-14  0
-4.59226e-14 -2.4104e-15  0
-2.53173e-14 2.08002e-14  0
-1.56896e-14 3.46823e-14  0
-1.53926e-14 4.12543e-14  0
-1.99731e-14 4.10783e-14  0
-2.28741e-14 3.74249e-14  0
-2.10988e-14 3.31245e-14  0
-1.47884e-14 2.82604e-14  0
-6.32702e-15 2.04333e-14  0
-9.1986e-16 1.14422e-14  0
2.40536e-12 5.86221e-12  0
1.43485e-14 1.29941e-11  0
-7.49527e-12 2.5745e-14  0
-1.05928e-11 -5.41278e-12  0
-9.59528e-12 -5.62911e-12  0
-5.97501e-12 -4.09435e-12  0
-1.57057e-12 -2.12009e-12  0
2.03012e-12 -4.08156e-13  0
3.92172e-12 6.25466e-13  0
3.98895e-12 8.73484e-13  0
2.71764e-12 5.03654e-13  0
8.64623e-13 -1.59954e-13  0
-8.46722e-13 -7.80868e-13  0
-1.91655e-12 -1.11885e-12  0
-2.15544e-12 -1.07742e-12  0
-1.68461e-12 -7.01389e-13  0
-8.26451e-13 -1.38392e-13  0
6.93263e-14 4.3138e-13  0
7.47121e-13 8.65802e-13  0
1.0786e-12 1.0914e-12  0
1.05894e-12 1.10028e-12  0
7.86596e-13 9.37399e-13  0
4.16482e-13 6.80869e-13  0
9.56492e-14 4.12531e-13  0
-9.37885e-14 1.92019e-13  0
-1.46438e-13 4.39683e-14  0
-9.58333e-14 -3.60831e-14  0
1.41812e-14 -6.67305e-14  0
1.25729e-13 -7.22113e-14  0
1.82507e-13 -7.67988e-14  0
1.6883e-13 -9.4506e-14  0
1.08186e-13 -1.22901e-13  0
2.67361e-14 -1.5206e-13  0
-5.63134e-14 -1.73482e-13  0
-1.20087e-13 -1.7998e-13  0
-1.49636e-13 -1.67722e-13  0
-1.44614e-13 -1.38856e-13  0
-1.15788e-13 -9.89469e-14  0
-7.89368e-14 -5.65433e-14  0
-4.73361e-14 -1.83083e-14  0
-2.48961e-14 1.09366e-14  0
-1.24048e-14 2.92153e-14  0
-1.0024e-14 3.84623e-14  0
-1.49582e-14 4.15796e-14  0
-2.12119e-14 3.96193e-14  0
-2.33878e-14 3.53719e-14  0
-2.07691e-14 3.11565e-14  0
-1.38824e-14 2.6471e-14  0
-5.71161e-15 1.97516e-14  0
-9.7289e-16 1.32941e-14  0
6.05042e-13 -3.8218e-13  0
-2.96915e-12 8.78225e-12  0
-9.11722e-12 -4.91504e-13  0
-1.08354e-11 -5.42663e-12  0
-8.8664e-12 -5.43957e-12  0
-4.91284e-12 -3.72808e-12  0
-7.64668e-13 -1.70638e-12  0
2.23849e-12 -6.91374e-14  0
3.50111e-12 8.47778e-13  0
3.15153e-12 1.02726e-12  0
1.78575e-12 6.88335e-13  0
1.37253e-13 1.51607e-13  0
-1.18315e-12 -2.92323e-13  0
-1.82128e-12 -4.65941e-13  0
-1.7203e-12 -3.27675e-13  0
-1.08317e-12 4.56024e-14  0
-2.41191e-13 5.0469e-13  0
5.04764e-13 8.96596e-13  0
9.68416e-13 1.12093e-12  0
1.08668e-12 1.14484e-12  0
9.05979e-13 9.91674e-13  0
5.5223e-13 7.24536e-13  0
1.77828e-13 4.23146e-13  0
-9.63107e-14 1.56761e-13  0